LAMMPS (23 Jun 2022 - Update 2)
# 3d Lennard-Jones melt

units		lj
atom_style	atomic
boundary	p p p

lattice	sc 0.5
Lattice spacing in x,y,z = 1.259921 1.259921 1.259921
region		box block 0 20 0 20 0 20
create_box	1 box
Created orthogonal box = (0 0 0) to (25.198421 25.198421 25.198421)
  1 by 2 by 2 MPI processor grid
create_atoms	1 box
Created 8000 atoms
  using lattice units in orthogonal box = (0 0 0) to (25.198421 25.198421 25.198421)
  create_atoms CPU = 0.001 seconds
mass		1 1.0
#read_data	Configuration-PBC.int

velocity        all create 1.5 22233 mom yes rot yes dist gaussian

pair_style	lj/cut 2.5
pair_coeff	1 1 1.0 1.0 2.5

neighbor	0.3 bin
neigh_modify	every 20 delay 0 check no

thermo_style    custom step temp press pe ke etotal vol
thermo          1000
thermo_modify   flush yes

fix		1 all nve

#dump            1 all custom 1000 Data.dump id type xu yu zu
#dump_modify     1 flush yes

#dump		2 all image 25 image.*.jpg type type axes yes 0.8 0.02 view 60 -30
#dump_modify	2 pad 3

#dump		3 all movie 25 movie.mpg type type axes yes 0.8 0.02 view 60 -30
#dump_modify	3 pad 3

run		1000000
Generated 0 of 0 mixed pair_coeff terms from geometric mixing rule
Neighbor list info ...
  update every 20 steps, delay 0 steps, check no
  max neighbors/atom: 2000, page size: 100000
  master list distance cutoff = 2.8
  ghost atom cutoff = 2.8
  binsize = 1.4, bins = 18 18 18
  1 neighbor lists, perpetual/occasional/extra = 1 0 0
  (1) pair lj/cut, perpetual
      attributes: half, newton on
      pair build: half/bin/atomonly/newton
      stencil: half/bin/3d
      bin: standard
Per MPI rank memory allocation (min/avg/max) = 2.708 | 2.708 | 2.708 Mbytes
   Step          Temp          Press          PotEng         KinEng         TotEng         Volume    
         0   1.5           -1.5986234     -3.1233389      2.2497187     -0.87362016     16000        
      1000   1.4333141      0.59565817    -3.0815101      2.1497023     -0.93180774     16000        
      2000   1.4310023      0.55282555    -3.0815542      2.1462351     -0.93531914     16000        
      3000   1.4334836      0.5485304     -3.0904236      2.1499566     -0.94046704     16000        
      4000   1.4274319      0.56355674    -3.0857335      2.1408802     -0.94485333     16000        
      5000   1.4165605      0.56921345    -3.0743799      2.1245751     -0.9498048      16000        
      6000   1.4217975      0.57721585    -3.0868471      2.1324296     -0.95441751     16000        
      7000   1.4124555      0.55930376    -3.0768626      2.1184185     -0.95844408     16000        
      8000   1.4141535      0.5424422     -3.0839069      2.120965      -0.96294186     16000        
      9000   1.4176792      0.57238303    -3.0937054      2.126253      -0.96745248     16000        
     10000   1.4096915      0.60370005    -3.0869033      2.1142729     -0.97263046     16000        
     11000   1.4020749      0.59410337    -3.079709       2.1028494     -0.97685956     16000        
     12000   1.40429        0.56039072    -3.0869911      2.1061718     -0.98081932     16000        
     13000   1.397753       0.57925298    -3.0822948      2.0963675     -0.98592738     16000        
     14000   1.3945764      0.55838702    -3.0809333      2.0916032     -0.98933013     16000        
     15000   1.4058577      0.53872444    -3.1026054      2.1085229     -0.99408243     16000        
     16000   1.3960846      0.5383489     -3.0911769      2.0938652     -0.99731176     16000        
     17000   1.3970124      0.54988512    -3.0977224      2.0952566     -1.0024658      16000        
     18000   1.383104       0.60158519    -3.08087        2.0743967     -1.0064733      16000        
     19000   1.3917738      0.55302454    -3.0978702      2.0873997     -1.0104705      16000        
     20000   1.3994767      0.54887397    -3.1139569      2.0989527     -1.0150042      16000        
     21000   1.3903398      0.56033054    -3.1042892      2.085249      -1.0190403      16000        
     22000   1.3794576      0.5547887     -3.0918348      2.0689278     -1.022907       16000        
     23000   1.3712914      0.52632172    -3.0836239      2.0566799     -1.0269439      16000        
     24000   1.382834       0.55116037    -3.1051343      2.0739918     -1.0311425      16000        
     25000   1.3793192      0.49740003    -3.1036869      2.0687202     -1.0349668      16000        
     26000   1.3830993      0.49743877    -3.1133418      2.0743896     -1.0389522      16000        
     27000   1.3665394      0.49654428    -3.0920109      2.0495528     -1.0424581      16000        
     28000   1.3641349      0.54110539    -3.0931902      2.0459465     -1.0472436      16000        
     29000   1.3707808      0.52202682    -3.1063298      2.0559141     -1.0504157      16000        
     30000   1.3677817      0.53909176    -3.1057568      2.0514161     -1.0543407      16000        
     31000   1.3779983      0.47685844    -3.125148       2.0667391     -1.0584089      16000        
     32000   1.3696379      0.484617      -3.1173377      2.0542001     -1.0631376      16000        
     33000   1.3579751      0.46138309    -3.1027886      2.0367081     -1.0660806      16000        
     34000   1.3490483      0.47499119    -3.0924823      2.0233194     -1.0691628      16000        
     35000   1.3619719      0.51827762    -3.116857       2.0427025     -1.0741544      16000        
     36000   1.3539484      0.49354619    -3.1084432      2.0306688     -1.0777744      16000        
     37000   1.3522759      0.42814073    -3.1094717      2.0281603     -1.0813114      16000        
     38000   1.3466444      0.54032261    -3.1052619      2.0197141     -1.0855478      16000        
     39000   1.3514553      0.49851581    -3.1160752      2.0269296     -1.0891456      16000        
     40000   1.3455239      0.46462192    -3.1107376      2.0180336     -1.092704       16000        
     41000   1.3563248      0.45965042    -3.1309215      2.034233      -1.0966885      16000        
     42000   1.3453022      0.45969256    -3.1172823      2.0177011     -1.0995812      16000        
     43000   1.3366139      0.45817138    -3.1081754      2.0046702     -1.1035052      16000        
     44000   1.3310411      0.48479024    -3.1033883      1.9963121     -1.1070761      16000        
     45000   1.3446343      0.43312803    -3.1273557      2.0166994     -1.1106563      16000        
     46000   1.3258179      0.5137021     -3.1026157      1.9884783     -1.1141373      16000        
     47000   1.3391815      0.46457356    -3.1263784      2.0085211     -1.1178572      16000        
     48000   1.3450765      0.42584161    -3.1394362      2.0173625     -1.1220736      16000        
     49000   1.3295212      0.4681733     -3.119128       1.9940324     -1.1250955      16000        
     50000   1.3372626      0.45302342    -3.1345397      2.0056432     -1.1288965      16000        
     51000   1.3342477      0.45450488    -3.1335549      2.0011213     -1.1324335      16000        
     52000   1.312788       0.44635263    -3.1042593      1.9689358     -1.1353235      16000        
     53000   1.3167176      0.48207501    -3.1137979      1.9748296     -1.1389683      16000        
     54000   1.3165698      0.45088931    -3.1171593      1.9746078     -1.1425516      16000        
     55000   1.3301583      0.45556842    -3.1409433      1.994988      -1.1459553      16000        
     56000   1.314076       0.4816295     -3.1203497      1.9708675     -1.1494822      16000        
     57000   1.3152082      0.41725308    -3.1255873      1.9725657     -1.1530216      16000        
     58000   1.3238876      0.43175396    -3.1420731      1.9855832     -1.1564899      16000        
     59000   1.3117173      0.40768387    -3.1263969      1.96733       -1.1590669      16000        
     60000   1.3148875      0.42768299    -3.1356849      1.9720847     -1.1636002      16000        
     61000   1.3080532      0.41029282    -3.1280044      1.9618346     -1.1661698      16000        
     62000   1.3022145      0.41076812    -3.122441       1.9530776     -1.1693633      16000        
     63000   1.3161975      0.40168738    -3.1474021      1.9740495     -1.1733526      16000        
     64000   1.3132433      0.4032956     -3.1456796      1.9696187     -1.1760609      16000        
     65000   1.3109139      0.40402702    -3.1462058      1.9661251     -1.1800807      16000        
     66000   1.3008296      0.42696161    -3.1342462      1.9510005     -1.1832457      16000        
     67000   1.3100192      0.42843809    -3.1510096      1.9647831     -1.1862264      16000        
     68000   1.3032416      0.38914993    -3.1444353      1.954618      -1.1898173      16000        
     69000   1.3123168      0.36127235    -3.1612029      1.9682291     -1.1929737      16000        
     70000   1.298604       0.38689344    -3.1429778      1.9476625     -1.1953153      16000        
     71000   1.2943868      0.36138184    -3.140139       1.9413374     -1.1988016      16000        
     72000   1.2845651      0.4146579     -3.1281153      1.9266068     -1.2015085      16000        
     73000   1.2964001      0.38487956    -3.1498773      1.9443571     -1.2055202      16000        
     74000   1.2877045      0.44910932    -3.1397298      1.9313154     -1.2084145      16000        
     75000   1.3012487      0.39074021    -3.1642771      1.9516291     -1.2126481      16000        
     76000   1.2822068      0.38649765    -3.1370718      1.9230698     -1.214002       16000        
     77000   1.2738918      0.41274337    -3.1275534      1.9105989     -1.2169546      16000        
     78000   1.2913864      0.353154      -3.1577285      1.9368374     -1.220891       16000        
     79000   1.2802267      0.37199254    -3.143237       1.9200999     -1.2231371      16000        
     80000   1.2792002      0.35878066    -3.1456738      1.9185604     -1.2271134      16000        
     81000   1.2754886      0.39444468    -3.1429492      1.9129938     -1.2299554      16000        
     82000   1.2759758      0.41978082    -3.1468503      1.9137245     -1.2331258      16000        
     83000   1.2707322      0.36747583    -3.1415173      1.90586       -1.2356573      16000        
     84000   1.2664523      0.35483714    -3.1378702      1.899441      -1.2384293      16000        
     85000   1.2705821      0.36201542    -3.1474414      1.9056349     -1.2418064      16000        
     86000   1.2738726      0.37587839    -3.1553274      1.9105701     -1.2447573      16000        
     87000   1.2732705      0.35438605    -3.1568338      1.9096671     -1.2471667      16000        
     88000   1.2600965      0.39305956    -3.1399611      1.8899085     -1.2500527      16000        
     89000   1.2730357      0.35480289    -3.1629865      1.9093149     -1.2536716      16000        
     90000   1.2708125      0.34698923    -3.1624357      1.9059805     -1.2564552      16000        
     91000   1.2595014      0.35444662    -3.1481436      1.8890159     -1.2591277      16000        
     92000   1.2769193      0.3320606     -3.1781094      1.9151395     -1.2629699      16000        
     93000   1.2603151      0.34968198    -3.155158       1.8902364     -1.2649216      16000        
     94000   1.2581214      0.32433854    -3.1544091      1.8869462     -1.2674629      16000        
     95000   1.2613697      0.31009579    -3.1622238      1.8918181     -1.2704057      16000        
     96000   1.2656914      0.40233034    -3.1726346      1.8982998     -1.2743348      16000        
     97000   1.2568913      0.32366246    -3.1612158      1.8851013     -1.2761145      16000        
     98000   1.2601475      0.37319889    -3.1691491      1.889985      -1.2791641      16000        
     99000   1.2512663      0.34419805    -3.1581911      1.8766649     -1.2815262      16000        
    100000   1.258517       0.34136948    -3.1715752      1.8875396     -1.2840356      16000        
    101000   1.2459537      0.37080119    -3.1553157      1.8686969     -1.2866187      16000        
    102000   1.2516202      0.2879739     -3.1662632      1.8771956     -1.2890676      16000        
    103000   1.2474722      0.3404142     -3.1629131      1.8709744     -1.2919387      16000        
    104000   1.2504537      0.3308902     -3.1711364      1.8754462     -1.2956903      16000        
    105000   1.2408619      0.35589297    -3.1587568      1.8610601     -1.2976967      16000        
    106000   1.2470937      0.2758009     -3.1705329      1.8704067     -1.3001262      16000        
    107000   1.2439623      0.32149341    -3.1689499      1.8657103     -1.3032396      16000        
    108000   1.2463723      0.33136201    -3.1749908      1.8693248     -1.305666       16000        
    109000   1.2491153      0.35492916    -3.1829005      1.8734387     -1.3094618      16000        
    110000   1.2334613      0.39596391    -3.161553       1.8499606     -1.3115924      16000        
    111000   1.2207005      0.3179157     -3.1436619      1.8308219     -1.31284        16000        
    112000   1.2387639      0.33535169    -3.1746071      1.8579137     -1.3166935      16000        
    113000   1.2355614      0.32582135    -3.1721089      1.8531105     -1.3189984      16000        
    114000   1.2366068      0.28844624    -3.1763578      1.8546783     -1.3216795      16000        
    115000   1.2222555      0.34534521    -3.1569786      1.8331541     -1.3238245      16000        
    116000   1.2317871      0.30731991    -3.1740035      1.8474496     -1.3265538      16000        
    117000   1.226847       0.32452117    -3.1688476      1.8400404     -1.3288072      16000        
    118000   1.2229434      0.28000265    -3.1654372      1.8341858     -1.3312514      16000        
    119000   1.2238529      0.34811749    -3.1699106      1.8355499     -1.3343607      16000        
    120000   1.2343613      0.27329871    -3.1881364      1.8513105     -1.3368259      16000        
    121000   1.2176241      0.33362651    -3.1654527      1.8262079     -1.3392448      16000        
    122000   1.2212292      0.34510938    -3.1739418      1.8316149     -1.3423269      16000        
    123000   1.2304009      0.25571346    -3.1888509      1.8453706     -1.3434803      16000        
    124000   1.2118652      0.29318828    -3.1638937      1.8175706     -1.3463231      16000        
    125000   1.22348        0.291463      -3.1841048      1.8349906     -1.3491143      16000        
    126000   1.2164713      0.33250455    -3.176529       1.8244789     -1.3520501      16000        
    127000   1.2243079      0.34962957    -3.191833       1.8362323     -1.3556006      16000        
    128000   1.2230097      0.33201694    -3.1914563      1.8342852     -1.3571711      16000        
    129000   1.2182758      0.27337308    -3.1863782      1.8271853     -1.3591929      16000        
    130000   1.2034122      0.3284995     -3.1662349      1.8048927     -1.3613423      16000        
    131000   1.2180771      0.28686858    -3.1906242      1.8268873     -1.3637369      16000        
    132000   1.197734       0.30650504    -3.161959       1.7963764     -1.3655826      16000        
    133000   1.2105387      0.3430375     -3.1847412      1.815581      -1.3691602      16000        
    134000   1.2072192      0.27877035    -3.18121        1.8106025     -1.3706075      16000        
    135000   1.2019511      0.24229572    -3.175057       1.8027012     -1.3723557      16000        
    136000   1.2042988      0.29240102    -3.1822485      1.8062225     -1.3760261      16000        
    137000   1.215848       0.28820182    -3.2024895      1.8235441     -1.3789454      16000        
    138000   1.2101502      0.27428815    -3.1956995      1.8149984     -1.3807011      16000        
    139000   1.1938916      0.28640742    -3.173248       1.7906136     -1.3826344      16000        
    140000   1.2195965      0.2198791     -3.2149846      1.829166      -1.3858186      16000        
    141000   1.1975946      0.31697869    -3.1839921      1.7961673     -1.3878248      16000        
    142000   1.1992431      0.30546961    -3.1891643      1.7986398     -1.3905245      16000        
    143000   1.2005917      0.26608398    -3.1929464      1.8006624     -1.392284       16000        
    144000   1.20285        0.26887924    -3.1987963      1.8040495     -1.3947468      16000        
    145000   1.1951485      0.25001134    -3.1889721      1.7924987     -1.3964735      16000        
    146000   1.1920843      0.29823809    -3.1870442      1.787903      -1.3991412      16000        
    147000   1.1869218      0.26705768    -3.1817945      1.7801601     -1.4016344      16000        
    148000   1.1929831      0.2936635     -3.1930629      1.7892509     -1.403812       16000        
    149000   1.1965952      0.26859244    -3.2010017      1.7946684     -1.4063333      16000        
    150000   1.1893119      0.26077774    -3.1917609      1.7837448     -1.4080162      16000        
    151000   1.1916208      0.27437798    -3.1975978      1.7872077     -1.4103901      16000        
    152000   1.1886289      0.2498682     -3.1954911      1.7827205     -1.4127705      16000        
    153000   1.1848035      0.25094383    -3.1911967      1.776983      -1.4142137      16000        
    154000   1.1884615      0.24690542    -3.1989831      1.7824694     -1.4165138      16000        
    155000   1.1805374      0.2606971     -3.1898424      1.7705847     -1.4192577      16000        
    156000   1.1854809      0.27902365    -3.1991725      1.777999      -1.4211735      16000        
    157000   1.1711646      0.22842325    -3.1797903      1.7565273     -1.423263       16000        
    158000   1.1879025      0.23773211    -3.2075128      1.7816311     -1.4258817      16000        
    159000   1.1881048      0.23095203    -3.2105867      1.7819345     -1.4286522      16000        
    160000   1.1751218      0.23235827    -3.1925718      1.7624624     -1.4301094      16000        
    161000   1.1834567      0.22171792    -3.2071931      1.7749632     -1.4322299      16000        
    162000   1.1838092      0.25174005    -3.2110254      1.7754918     -1.4355336      16000        
    163000   1.1772085      0.26173861    -3.2025892      1.765592      -1.4369973      16000        
    164000   1.1737603      0.26157978    -3.1995836      1.7604203     -1.4391633      16000        
    165000   1.1820258      0.20766319    -3.2139345      1.7728171     -1.4411175      16000        
    166000   1.1761829      0.25466463    -3.2075938      1.7640538     -1.44354        16000        
    167000   1.1747613      0.21687827    -3.2067745      1.7619216     -1.4448529      16000        
    168000   1.1831741      0.23164614    -3.2217684      1.7745393     -1.4472291      16000        
    169000   1.1790014      0.21679533    -3.2184452      1.768281      -1.4501642      16000        
    170000   1.175661       0.22601706    -3.2157863      1.763271      -1.4525153      16000        
    171000   1.1795605      0.19290079    -3.2239464      1.7691196     -1.4548268      16000        
    172000   1.165251       0.24312172    -3.2035033      1.747658      -1.4558453      16000        
    173000   1.1612245      0.19480982    -3.1992361      1.741619      -1.4576172      16000        
    174000   1.1656447      0.2077324     -3.2080878      1.7482485     -1.4598393      16000        
    175000   1.1558742      0.259394      -3.1948299      1.7335945     -1.4612354      16000        
    176000   1.1578755      0.24925988    -3.2002059      1.7365962     -1.4636097      16000        
    177000   1.164539       0.21404894    -3.2122442      1.7465901     -1.4656541      16000        
    178000   1.1611248      0.26497439    -3.2094037      1.7414694     -1.4679343      16000        
    179000   1.1694146      0.24146905    -3.2243713      1.7539026     -1.4704687      16000        
    180000   1.1508701      0.26899759    -3.1979131      1.7260894     -1.4718237      16000        
    181000   1.16085        0.19774701    -3.2153351      1.7410573     -1.4742778      16000        
    182000   1.1631911      0.22579138    -3.2207467      1.7445686     -1.4761781      16000        
    183000   1.1553789      0.21296719    -3.2112286      1.7328518     -1.4783768      16000        
    184000   1.1586993      0.20290621    -3.2181492      1.7378317     -1.4803175      16000        
    185000   1.1473907      0.27078913    -3.2029707      1.7208709     -1.4820999      16000        
    186000   1.1481909      0.25030627    -3.2053831      1.7220711     -1.4833121      16000        
    187000   1.158745       0.21637339    -3.2243264      1.7379003     -1.4864261      16000        
    188000   1.1518005      0.19167485    -3.2148708      1.7274847     -1.4873861      16000        
    189000   1.1529885      0.19832071    -3.2186061      1.7292666     -1.4893395      16000        
    190000   1.1575239      0.21926332    -3.2286621      1.7360688     -1.4925933      16000        
    191000   1.1585421      0.21056782    -3.2324782      1.7375959     -1.4948823      16000        
    192000   1.1648613      0.18158111    -3.2436725      1.7470735     -1.496599       16000        
    193000   1.1408694      0.23096656    -3.2091013      1.7110902     -1.4980112      16000        
    194000   1.1472351      0.18099065    -3.2194617      1.7206375     -1.4988242      16000        
    195000   1.1477205      0.19923435    -3.2231712      1.7213656     -1.5018056      16000        
    196000   1.1543585      0.1759419     -3.2350461      1.7313213     -1.5037248      16000        
    197000   1.1417978      0.17685612    -3.2177137      1.7124827     -1.5052311      16000        
    198000   1.137556       0.24183652    -3.2130608      1.7061207     -1.5069401      16000        
    199000   1.1388694      0.18392722    -3.2169309      1.7080905     -1.5088404      16000        
    200000   1.1419806      0.19630656    -3.2238642      1.7127567     -1.5111075      16000        
    201000   1.1461687      0.18632683    -3.2322592      1.7190382     -1.513221       16000        
    202000   1.1352801      0.15220987    -3.2169289      1.7027073     -1.5142216      16000        
    203000   1.1410152      0.20697503    -3.2282624      1.7113088     -1.5169536      16000        
    204000   1.1304247      0.20871184    -3.2133355      1.6954252     -1.5179104      16000        
    205000   1.1357242      0.22014099    -3.2240427      1.7033734     -1.5206693      16000        
    206000   1.1256887      0.184234      -3.2103773      1.6883219     -1.5220554      16000        
    207000   1.1360622      0.24023594    -3.2288558      1.7038804     -1.5249755      16000        
    208000   1.1384425      0.17404671    -3.2333951      1.7074503     -1.5259448      16000        
    209000   1.132311       0.24134159    -3.2263854      1.6982542     -1.5281312      16000        
    210000   1.1361796      0.18750523    -3.2344108      1.7040564     -1.5303545      16000        
    211000   1.1291408      0.20221499    -3.2245879      1.6934994     -1.5310885      16000        
    212000   1.1275102      0.20170195    -3.2236648      1.691054      -1.5326109      16000        
    213000   1.1290547      0.16323102    -3.2280964      1.6933704     -1.534726       16000        
    214000   1.1392751      0.17956864    -3.2455433      1.708699      -1.5368443      16000        
    215000   1.1287836      0.18441492    -3.2314284      1.6929637     -1.5384647      16000        
    216000   1.1280225      0.18421149    -3.2322583      1.6918222     -1.5404361      16000        
    217000   1.1397632      0.12732591    -3.2512579      1.7094311     -1.5418268      16000        
    218000   1.1185213      0.18568137    -3.2216341      1.6775722     -1.5440618      16000        
    219000   1.1275918      0.15534255    -3.2367178      1.6911763     -1.5455415      16000        
    220000   1.1199609      0.19100682    -3.2271119      1.6797314     -1.5473806      16000        
    221000   1.1260125      0.17655145    -3.2383286      1.6888077     -1.549521       16000        
    222000   1.1285087      0.15282249    -3.2443321      1.6925515     -1.5517806      16000        
    223000   1.1280447      0.1846096     -3.2454204      1.6918555     -1.5535649      16000        
    224000   1.1390081      0.1467409     -3.2635154      1.7082986     -1.5552168      16000        
    225000   1.1147611      0.16336665    -3.2281936      1.6719326     -1.556261       16000        
    226000   1.1248166      0.17115413    -3.2453144      1.687014      -1.5583004      16000        
    227000   1.1291842      0.14674108    -3.2535002      1.6935646     -1.5599356      16000        
    228000   1.1172749      0.16918451    -3.2369976      1.6757029     -1.5612946      16000        
    229000   1.1094183      0.2222939     -3.227279       1.6639195     -1.5633595      16000        
    230000   1.1243923      0.17397882    -3.251907       1.6863776     -1.5655294      16000        
    231000   1.1181232      0.17389916    -3.2445195      1.6769752     -1.5675443      16000        
    232000   1.1099246      0.21158967    -3.2333867      1.6646788     -1.5687079      16000        
    233000   1.1150115      0.12506982    -3.2424512      1.6723081     -1.570143       16000        
    234000   1.1044158      0.1380983     -3.2279456      1.6564167     -1.5715289      16000        
    235000   1.1096962      0.17931621    -3.2377599      1.6643362     -1.5734237      16000        
    236000   1.1129551      0.16687446    -3.2441917      1.669224      -1.5749678      16000        
    237000   1.1058314      0.19886596    -3.2351909      1.6585398     -1.5766511      16000        
    238000   1.1158632      0.095342404   -3.2517555      1.6735856     -1.5781699      16000        
    239000   1.1035191      0.11468546    -3.2349458      1.6550718     -1.5798741      16000        
    240000   1.1053378      0.09835727    -3.2389477      1.6577994     -1.5811483      16000        
    241000   1.1127304      0.1350628     -3.253249       1.6688869     -1.5843621      16000        
    242000   1.112596       0.17946423    -3.2549498      1.6686854     -1.5862644      16000        
    243000   1.1084927      0.14946879    -3.2501781      1.6625313     -1.5876469      16000        
    244000   1.1025231      0.16521519    -3.2424038      1.653578      -1.5888258      16000        
    245000   1.1045364      0.14805725    -3.2470133      1.6565975     -1.5904158      16000        
    246000   1.1127196      0.19682043    -3.2622452      1.6688708     -1.5933744      16000        
    247000   1.1115666      0.13809639    -3.2618253      1.6671414     -1.5946839      16000        
    248000   1.0949741      0.1449921     -3.2378949      1.6422559     -1.595639       16000        
    249000   1.1055436      0.13104784    -3.2552477      1.6581082     -1.5971395      16000        
    250000   1.1031698      0.15167502    -3.2534557      1.6545479     -1.5989078      16000        
    251000   1.1030499      0.16522597    -3.2545899      1.654368      -1.6002219      16000        
    252000   1.1003706      0.16414198    -3.252018       1.6503496     -1.6016684      16000        
    253000   1.108873       0.094048164   -3.2664971      1.6631015     -1.6033956      16000        
    254000   1.1047192      0.12436655    -3.2614607      1.6568717     -1.6045891      16000        
    255000   1.0915574      0.10534812    -3.2430924      1.6371314     -1.605961       16000        
    256000   1.0983883      0.16263952    -3.2562496      1.6473766     -1.608873       16000        
    257000   1.1044418      0.1492425     -3.2676473      1.6564556     -1.6111917      16000        
    258000   1.0964702      0.11127835    -3.2566303      1.6444998     -1.6121305      16000        
    259000   1.1015002      0.16815236    -3.2663501      1.6520437     -1.6143064      16000        
    260000   1.090107       0.14737032    -3.2494596      1.6349561     -1.6145035      16000        
    261000   1.0965616      0.17523652    -3.2616779      1.6446367     -1.6170411      16000        
    262000   1.0989986      0.084228171   -3.2659487      1.6482918     -1.6176569      16000        
    263000   1.0917031      0.12535952    -3.2564974      1.63735       -1.6191475      16000        
    264000   1.0948621      0.19250598    -3.2643317      1.6420878     -1.6222439      16000        
    265000   1.1044219      0.14383803    -3.2800657      1.6564258     -1.6236399      16000        
    266000   1.0874796      0.14543267    -3.2555029      1.6310155     -1.6244874      16000        
    267000   1.0918597      0.14179778    -3.2633404      1.6375849     -1.6257556      16000        
    268000   1.0827286      0.098428393   -3.25066        1.6238899     -1.62677        16000        
    269000   1.0956259      0.099405446   -3.2713952      1.6432334     -1.6281618      16000        
    270000   1.0886654      0.10703399    -3.2627798      1.632794      -1.6299858      16000        
    271000   1.0919519      0.13796998    -3.2705249      1.6377231     -1.6328017      16000        
    272000   1.0902317      0.1412004     -3.2690511      1.6351431     -1.6339081      16000        
    273000   1.0937282      0.085744321   -3.2754577      1.6403872     -1.6350705      16000        
    274000   1.0923362      0.12223167    -3.2745859      1.6382995     -1.6362863      16000        
    275000   1.0794572      0.12364316    -3.2571412      1.6189834     -1.6381578      16000        
    276000   1.080962       0.14392808    -3.2605277      1.6212403     -1.6392874      16000        
    277000   1.086148       0.11464533    -3.2696077      1.6290183     -1.6405894      16000        
    278000   1.076574       0.12527914    -3.2562584      1.6146592     -1.6415992      16000        
    279000   1.0881862      0.12595148    -3.2761936      1.6320752     -1.6441183      16000        
    280000   1.0731887      0.1263779     -3.2538054      1.6095818     -1.6442236      16000        
    281000   1.0814372      0.10701871    -3.2687029      1.621953      -1.6467499      16000        
    282000   1.0786223      0.12901613    -3.2661887      1.6177313     -1.6484574      16000        
    283000   1.0802686      0.074218688   -3.2692118      1.6202004     -1.6490114      16000        
    284000   1.0833688      0.11710548    -3.2762557      1.6248501     -1.6514056      16000        
    285000   1.0903944      0.17718611    -3.2895101      1.6353871     -1.654123       16000        
    286000   1.0678237      0.18787805    -3.2561003      1.6015354     -1.6545649      16000        
    287000   1.0882985      0.077925837   -3.2878696      1.6322436     -1.655626       16000        
    288000   1.0786459      0.073603793   -3.2747925      1.6177667     -1.6570258      16000        
    289000   1.0741453      0.1199894     -3.2697283      1.6110166     -1.6587117      16000        
    290000   1.067122       0.1118749     -3.2601523      1.6004829     -1.6596693      16000        
    291000   1.0884255      0.098435122   -3.2956653      1.6324342     -1.6632311      16000        
    292000   1.0738111      0.10336726    -3.2730491      1.6105154     -1.6625337      16000        
    293000   1.0760843      0.12620703    -3.2784601      1.6139246     -1.6645354      16000        
    294000   1.0615665      0.098406285   -3.2570272      1.5921508     -1.6648764      16000        
    295000   1.0693408      0.093254375   -3.2713843      1.6038107     -1.6675737      16000        
    296000   1.0670138      0.12671806    -3.2691048      1.6003206     -1.6687842      16000        
    297000   1.0693273      0.090394336   -3.2739746      1.6037905     -1.6701841      16000        
    298000   1.0729178      0.069514295   -3.2802994      1.6091755     -1.6711239      16000        
    299000   1.07429        0.095410514   -3.2843674      1.6112336     -1.6731338      16000        
    300000   1.0759759      0.13042969    -3.2892888      1.6137621     -1.6755267      16000        
    301000   1.0695537      0.11780096    -3.2801514      1.6041301     -1.6760213      16000        
    302000   1.0721693      0.10179165    -3.2859823      1.6080529     -1.6779294      16000        
    303000   1.0587511      0.085125017   -3.2654678      1.5879282     -1.6775396      16000        
    304000   1.0664725      0.072239239   -3.2790144      1.5995088     -1.6795056      16000        
    305000   1.0636632      0.13056179    -3.2771049      1.5952953     -1.6818096      16000        
    306000   1.0634079      0.093262939   -3.2780921      1.5949125     -1.6831797      16000        
    307000   1.067061       0.13595159    -3.285306       1.6003914     -1.6849146      16000        
    308000   1.0618065      0.13991927    -3.2790394      1.5925106     -1.6865287      16000        
    309000   1.0652882      0.10722793    -3.2856815      1.5977326     -1.6879489      16000        
    310000   1.0752293      0.10644053    -3.3023698      1.6126424     -1.6897274      16000        
    311000   1.0652164      0.14087055    -3.2884044      1.5976249     -1.6907795      16000        
    312000   1.0620327      0.12384579    -3.2843865      1.5928498     -1.6915366      16000        
    313000   1.0636188      0.10876624    -3.2878781      1.5952287     -1.6926494      16000        
    314000   1.0633668      0.11331212    -3.2899728      1.5948508     -1.695122       16000        
    315000   1.0684071      0.047846738   -3.2982489      1.6024103     -1.6958386      16000        
    316000   1.0630607      0.06970878    -3.2915059      1.5943917     -1.6971141      16000        
    317000   1.0689989      0.094498029   -3.3030568      1.6032979     -1.6997589      16000        
    318000   1.0534818      0.099505675   -3.2799388      1.5800252     -1.6999136      16000        
    319000   1.0646111      0.12857498    -3.2987105      1.596717      -1.7019935      16000        
    320000   1.0534227      0.11999328    -3.282583       1.5799366     -1.7026464      16000        
    321000   1.0496993      0.12391114    -3.2780818      1.5743522     -1.7037297      16000        
    322000   1.0622839      0.090266808   -3.2990749      1.5932267     -1.7058481      16000        
    323000   1.0714672      0.077588772   -3.3141542      1.6069999     -1.7071542      16000        
    324000   1.0465372      0.10711624    -3.2770388      1.5696096     -1.7074292      16000        
    325000   1.0506202      0.079097538   -3.2841283      1.5757333     -1.708395       16000        
    326000   1.0560905      0.12984069    -3.2956519      1.5839378     -1.7117142      16000        
    327000   1.0491452      0.098129106   -3.2849988      1.5735211     -1.7114777      16000        
    328000   1.0535686      0.072933176   -3.2934439      1.5801553     -1.7132885      16000        
    329000   1.0606575      0.053185562   -3.3054833      1.5907874     -1.7146959      16000        
    330000   1.0534696      0.096045216   -3.2962497      1.5800068     -1.7162428      16000        
    331000   1.0607174      0.13266496    -3.3092254      1.5908772     -1.7183482      16000        
    332000   1.0618592      0.075091337   -3.3120987      1.5925897     -1.719509       16000        
    333000   1.0514634      0.14537954    -3.2976691      1.5769979     -1.7206711      16000        
    334000   1.0525445      0.085772008   -3.2994508      1.5786194     -1.7208314      16000        
    335000   1.0437265      0.11722996    -3.287824       1.565394      -1.7224299      16000        
    336000   1.0528599      0.090908606   -3.3030509      1.5790924     -1.7239585      16000        
    337000   1.0523989      0.066032329   -3.3037044      1.5784011     -1.7253033      16000        
    338000   1.0567301      0.088049487   -3.3120345      1.5848971     -1.7271375      16000        
    339000   1.0371135      0.085699776   -3.2822737      1.5554758     -1.726798       16000        
    340000   1.0409094      0.10009861    -3.2900851      1.5611689     -1.7289162      16000        
    341000   1.0546173      0.025726018   -3.3129103      1.5817282     -1.7311821      16000        
    342000   1.0403633      0.066850186   -3.2916101      1.5603499     -1.7312602      16000        
    343000   1.0464729      0.044447721   -3.3019495      1.5695131     -1.7324364      16000        
    344000   1.051731       0.070022166   -3.3115781      1.5773992     -1.7341788      16000        
    345000   1.0311458      0.085425565   -3.2812055      1.5465253     -1.7346802      16000        
    346000   1.0439404      0.087347204   -3.3025425      1.5657148     -1.7368277      16000        
    347000   1.0419556      0.043100637   -3.3002119      1.5627381     -1.7374738      16000        
    348000   1.0398052      0.11623815    -3.2988799      1.5595128     -1.7393671      16000        
    349000   1.0461969      0.11659947    -3.3098847      1.5690992     -1.7407855      16000        
    350000   1.0347341      0.069712187   -3.2934008      1.5519071     -1.7414937      16000        
    351000   1.0408477      0.010347501   -3.3035194      1.5610764     -1.742443       16000        
    352000   1.0491353      0.060748807   -3.3188148      1.5735062     -1.7453086      16000        
    353000   1.0443895      0.07228104    -3.3129167      1.5663884     -1.7465284      16000        
    354000   1.043248       0.071169785   -3.3115571      1.5646764     -1.7468806      16000        
    355000   1.0362486      0.086181126   -3.3026246      1.5541786     -1.748446       16000        
    356000   1.0407564      0.042738026   -3.3104309      1.5609395     -1.7494914      16000        
    357000   1.0254775      0.090795247   -3.2883825      1.538024      -1.7503586      16000        
    358000   1.0340283      0.10638815    -3.3020516      1.5508485     -1.751203       16000        
    359000   1.046197       0.038324309   -3.323233       1.5690993     -1.7541338      16000        
    360000   1.0366635      0.043637182   -3.3097516      1.5548009     -1.7549508      16000        
    361000   1.0475926      0.02530024    -3.3271321      1.5711925     -1.7559396      16000        
    362000   1.0498557      0.11343803    -3.333607       1.5745867     -1.7590203      16000        
    363000   1.0410169      0.050063302   -3.320895       1.5613302     -1.7595648      16000        
    364000   1.0302791      0.08704687    -3.3049514      1.5452255     -1.7597259      16000        
    365000   1.0339326      0.092727874   -3.3113465      1.5507051     -1.7606414      16000        
    366000   1.0302559      0.10103979    -3.3072982      1.5451907     -1.7621075      16000        
    367000   1.0383597      0.044200519   -3.3208517      1.5573449     -1.7635068      16000        
    368000   1.0263551      0.052810903   -3.3035899      1.5393403     -1.7642496      16000        
    369000   1.0363561      0.11344649    -3.3215915      1.5543398     -1.7672517      16000        
    370000   1.0367906      0.024304968   -3.3218295      1.5549915     -1.7668379      16000        
    371000   1.0295122      0.089493791   -3.3129411      1.5440752     -1.7688659      16000        
    372000   1.0443355      0.04522833    -3.3364427      1.5663075     -1.7701352      16000        
    373000   1.0343921      0.061500958   -3.3224286      1.5513943     -1.7710343      16000        
    374000   1.0248778      0.058203494   -3.3085106      1.5371246     -1.771386       16000        
    375000   1.0343005      0.046520576   -3.3241838      1.5512569     -1.772927       16000        
    376000   1.027402       0.07230798    -3.3148749      1.5409104     -1.7739646      16000        
    377000   1.0279402      0.027533302   -3.316578       1.5417176     -1.7748604      16000        
    378000   1.0317125      0.063515423   -3.3243889      1.5473752     -1.7770137      16000        
    379000   1.0291684      0.031968732   -3.3215082      1.5435596     -1.7779486      16000        
    380000   1.0337337      0.028372164   -3.3299835      1.5504067     -1.7795768      16000        
    381000   1.025454       0.070307454   -3.3186978      1.5379887     -1.7807091      16000        
    382000   1.0322157      0.061946628   -3.3308466      1.5481301     -1.7827165      16000        
    383000   1.0312361      0.062462912   -3.3296806      1.5466609     -1.7830198      16000        
    384000   1.0295954      0.081527655   -3.3289812      1.5442001     -1.7847812      16000        
    385000   1.0270321      0.11356739    -3.3255807      1.5403555     -1.7852252      16000        
    386000   1.0362216      0.039969088   -3.3405762      1.5541382     -1.7864381      16000        
    387000   1.0235656      0.059637525   -3.3223687      1.5351565     -1.7872122      16000        
    388000   1.0302757      0.059862215   -3.3344406      1.5452204     -1.7892203      16000        
    389000   1.0395088      0.063810461   -3.3509476      1.5590682     -1.7918793      16000        
    390000   1.0250142      0.079431041   -3.3293727      1.537329      -1.7920437      16000        
    391000   1.02548        0.067469346   -3.3311555      1.5380278     -1.7931278      16000        
    392000   1.0290554      0.077862515   -3.3383757      1.5433901     -1.7949856      16000        
    393000   1.0154135      0.079485835   -3.318101       1.5229299     -1.7951711      16000        
    394000   1.0326998      0.059826811   -3.3449649      1.5488561     -1.7961087      16000        
    395000   1.0167128      0.065390558   -3.3212496      1.5248785     -1.796371       16000        
    396000   1.0253662      0.039885963   -3.3364123      1.537857      -1.7985552      16000        
    397000   1.0366982      0.037907925   -3.3551599      1.554853      -1.8003069      16000        
    398000   1.0165145      0.055931851   -3.3251769      1.5245811     -1.8005957      16000        
    399000   1.0332304      0.012991587   -3.3517601      1.5496519     -1.8021082      16000        
    400000   1.0229849      0.082065901   -3.3381596      1.5342856     -1.803874       16000        
    401000   1.0126078      0.086387495   -3.3229364      1.5187219     -1.8042145      16000        
    402000   1.0204823      0.015411794   -3.3359347      1.530532      -1.8054026      16000        
    403000   1.0203258      0.051754479   -3.3373355      1.5302974     -1.8070381      16000        
    404000   1.0114292      0.075102525   -3.3242188      1.5169541     -1.8072647      16000        
    405000   1.0253097      0.0232402     -3.3471368      1.5377724     -1.8093645      16000        
    406000   1.0214506      0.04852409    -3.3425181      1.5319843     -1.8105338      16000        
    407000   1.0336006      0.027795346   -3.3628353      1.5502071     -1.8126282      16000        
    408000   1.0286012      0.019808553   -3.3561113      1.5427089     -1.8134024      16000        
    409000   1.0058778      0.047135575   -3.3212961      1.5086281     -1.812668       16000        
    410000   1.0127586      0.026627167   -3.3325323      1.518948      -1.8135843      16000        
    411000   0.9993971      0.11717603    -3.3142457      1.4989083     -1.8153375      16000        
    412000   1.0164846      0.024463667   -3.3411462      1.5245363     -1.8166099      16000        
    413000   1.0143577      0.0095414077  -3.3387792      1.5213464     -1.8174328      16000        
    414000   1.0237304     -0.013825059   -3.3541051      1.5354036     -1.8187015      16000        
    415000   1.0086798      0.072669496   -3.3319957      1.5128305     -1.8191652      16000        
    416000   1.0181331      0.032694626   -3.3490216      1.5270087     -1.8220128      16000        
    417000   1.0191621      0.052609005   -3.3531567      1.528552      -1.8246046      16000        
    418000   1.0267336      0.078662638   -3.3651689      1.5399078     -1.8252611      16000        
    419000   1.019578       0.036715263   -3.3546861      1.5291758     -1.8255104      16000        
    420000   1.0192112      0.083052553   -3.3557148      1.5286258     -1.8270891      16000        
    421000   1.0161493      0.047146756   -3.3522666      1.5240334     -1.8282332      16000        
    422000   1.018741       0.059271661   -3.3574776      1.5279205     -1.829557       16000        
    423000   1.0142571      0.032978201   -3.3511405      1.5211955     -1.829945       16000        
    424000   1.0183802      0.012572173   -3.3587579      1.5273794     -1.8313786      16000        
    425000   1.0200102      0.010260015   -3.3622013      1.5298241     -1.8323772      16000        
    426000   1.0107249      0.017521298   -3.349468       1.5158978     -1.8335702      16000        
    427000   1.0117785      0.032327537   -3.35188        1.5174781     -1.8344019      16000        
    428000   1.0201443      0.037098367   -3.3658133      1.5300252     -1.8357881      16000        
    429000   1.0097478      0.095841146   -3.3518664      1.5144323     -1.8374341      16000        
    430000   0.99658048     0.024283719   -3.3307634      1.4946839     -1.8360795      16000        
    431000   1.0078866      0.086578533   -3.3506543      1.511641      -1.8390133      16000        
    432000   1.0120357      0.048393484   -3.3583376      1.5178638     -1.8404738      16000        
    433000   1.0177996      0.047485802   -3.3682075      1.5265086     -1.8416989      16000        
    434000   1.0194373      0.073775638   -3.3723251      1.5289649     -1.8433602      16000        
    435000   1.0079813      0.052969135   -3.3553109      1.5117829     -1.843528       16000        
    436000   1.0170509      0.05970676    -3.3704508      1.5253857     -1.8450651      16000        
    437000   0.98831966     0.061915875   -3.3268086      1.4822942     -1.8445144      16000        
    438000   1.0120121      0.023008793   -3.3641529      1.5178284     -1.8463245      16000        
    439000   1.0102298      0.025128543   -3.3627798      1.5151553     -1.8476245      16000        
    440000   1.0109416      0.085449811   -3.3652386      1.5162228     -1.8490158      16000        
    441000   1.0024385      0.028166515   -3.3532263      1.5034698     -1.8497565      16000        
    442000   1.0056489      0.077368119   -3.3598556      1.5082848     -1.8515708      16000        
    443000   1.012052       0.043836808   -3.3705494      1.5178883     -1.8526611      16000        
    444000   0.99561964     0.034695959   -3.3453874      1.4932428     -1.8521446      16000        
    445000   0.99244945     0.05359277    -3.3419952      1.4884881     -1.8535071      16000        
    446000   0.99945329     0.055492625   -3.3538184      1.4989925     -1.8548259      16000        
    447000   1.0069425      0.03188536    -3.3673622      1.510225      -1.8571372      16000        
    448000   1.0104459      0.031131583   -3.3732805      1.5154794     -1.8578011      16000        
    449000   1.0090871      0.04968017    -3.3727082      1.5134415     -1.8592667      16000        
    450000   1.0119343      0.024912972   -3.3776598      1.5177117     -1.859948       16000        
    451000   0.99894987     0.0097235441  -3.3586248      1.4982375     -1.8603873      16000        
    452000   1.0001073      0.04478577    -3.3613516      1.4999734     -1.8613782      16000        
    453000   0.99831999     0.010034783   -3.360177       1.4972928     -1.8628842      16000        
    454000   1.0019798      0.024110269   -3.3673344      1.5027819     -1.8645525      16000        
    455000   1.0090454      0.052965936   -3.3801703      1.513379      -1.8667913      16000        
    456000   1.0011045      0.030823888   -3.3673003      1.501469      -1.8658312      16000        
    457000   1.0013227      0.033268519   -3.3689345      1.5017964     -1.8671381      16000        
    458000   0.99570223     0.06180983    -3.3617041      1.4933666     -1.8683374      16000        
    459000   1.0045608      0.0028301416  -3.376238       1.5066528     -1.8695852      16000        
    460000   1.0034636      0.078285451   -3.3769991      1.5050073     -1.8719918      16000        
    461000   0.99406684     0.012604486   -3.3618537      1.4909139     -1.8709398      16000        
    462000   0.99477188     0.062148142   -3.364095       1.4919713     -1.8721237      16000        
    463000   1.0194199      0.078851587   -3.4056449      1.5289387     -1.8767063      16000        
    464000   1.0050958      0.020760812   -3.382388       1.5074553     -1.8749327      16000        
    465000   0.99030727     0.031527081   -3.3605777      1.4852752     -1.8753025      16000        
    466000   1.0076504      0.012055909   -3.3887615      1.5112867     -1.8774748      16000        
    467000   1.0028788      0.075215512   -3.3828896      1.5041301     -1.8787595      16000        
    468000   0.99330961     0.0087443787  -3.3678945      1.4897782     -1.8781163      16000        
    469000   1.0017876      0.033347096   -3.3824607      1.5024935     -1.8799672      16000        
    470000   0.99337146     0.003893622   -3.3705396      1.4898709     -1.8806687      16000        
    471000   0.98829288     0.0076158807  -3.3633259      1.482254      -1.8810719      16000        
    472000   0.99872353     0.0016416617  -3.3812293      1.497898      -1.8833313      16000        
    473000   0.99056252     0.0048979887  -3.3693959      1.4856581     -1.8837379      16000        
    474000   1.0024696      0.0172299     -3.3889024      1.5035164     -1.885386       16000        
    475000   0.99137478     0.022218178   -3.3732635      1.4868763     -1.8863872      16000        
    476000   0.99795356     0.058007376   -3.3855046      1.4967432     -1.8887614      16000        
    477000   0.99259319     0.0063828607  -3.3774526      1.4887037     -1.8887489      16000        
    478000   0.9953154      0.0072791513  -3.3819188      1.4927865     -1.8891323      16000        
    479000   0.98813991    -0.032711336   -3.3716978      1.4820246     -1.8896732      16000        
    480000   0.97968052    -0.0085148112  -3.3592737      1.4693371     -1.8899366      16000        
    481000   0.97579926     0.013622243   -3.3550328      1.4635159     -1.8915169      16000        
    482000   0.99516941    -0.0094942595  -3.3861083      1.4925675     -1.8935408      16000        
    483000   0.98955905     0.039140823   -3.3797415      1.484153      -1.8955885      16000        
    484000   1.0005657     -0.0039553474  -3.3971261      1.5006609     -1.8964652      16000        
    485000   0.99631173     0.01017419    -3.3912105      1.4942808     -1.8969297      16000        
    486000   0.99748069     0.016654042   -3.394036       1.496034      -1.898002       16000        
    487000   0.99426309     0.014648783   -3.3914848      1.4912082     -1.9002766      16000        
    488000   1.0097527      0.050424495   -3.417644       1.5144397     -1.9032043      16000        
    489000   1.005424       0.021863818   -3.4120229      1.5079474     -1.9040755      16000        
    490000   1.0104807      0.064147271   -3.4213857      1.5155316     -1.9058541      16000        
    491000   0.99864061     0.042355695   -3.4023556      1.4977737     -1.9045819      16000        
    492000   0.99791656    -0.0057848334  -3.4017823      1.4966877     -1.9050945      16000        
    493000   1.0047172     -0.0017106732  -3.4138968      1.5068874     -1.9070094      16000        
    494000   0.99636036     0.080222269   -3.4042646      1.4943537     -1.9099109      16000        
    495000   1.0004964      0.030000837   -3.4104764      1.5005571     -1.9099194      16000        
    496000   0.99391191     0.00056281461 -3.4010195      1.4906815     -1.910338       16000        
    497000   0.99885508     0.036222677   -3.4099347      1.4980953     -1.9118394      16000        
    498000   0.99838146     0.0071339606  -3.4091062      1.497385      -1.9117212      16000        
    499000   1.0004095      0.032454559   -3.4140307      1.5004266     -1.9136041      16000        
    500000   1.0046283      0.062817097   -3.4240108      1.506754      -1.9172567      16000        
    501000   1.0042357     -0.012522404   -3.4233034      1.5061652     -1.9171382      16000        
    502000   0.98906116    -0.0052543974  -3.3996971      1.4834063     -1.9162908      16000        
    503000   0.99014791     0.070323503   -3.4030757      1.4850362     -1.9180395      16000        
    504000   0.9973878      0.086381492   -3.4167137      1.4958947     -1.920819       16000        
    505000   0.99807656     0.028685741   -3.4171726      1.4969277     -1.9202449      16000        
    506000   0.99122152     0.040930942   -3.407812       1.4866464     -1.9211655      16000        
    507000   0.98421011     0.055472368   -3.3980726      1.4761306     -1.921942       16000        
    508000   1.0055041     -0.022579935   -3.4313235      1.5080677     -1.9232558      16000        
    509000   1.0079283      0.045215193   -3.4380681      1.5117035     -1.9263646      16000        
    510000   1.0002292     -0.0023045891  -3.4258439      1.5001562     -1.9256877      16000        
    511000   0.99886273     0.043998523   -3.4267248      1.4981068     -1.928618       16000        
    512000   1.0258778      0.054191991   -3.4718904      1.5386243     -1.9332661      16000        
    513000   1.0086048      0.068031892   -3.4451434      1.5127181     -1.9324253      16000        
    514000   1.0070391      0.050240881   -3.442666       1.5103699     -1.9322961      16000        
    515000   0.99231806     0.078645086   -3.4211795      1.488291      -1.9328884      16000        
    516000   0.99739415     0.086517929   -3.4292687      1.4959042     -1.9333644      16000        
    517000   1.0016482      0.11535334    -3.4385183      1.5022845     -1.9362338      16000        
    518000   0.99907288     0.072523685   -3.4348354      1.498422      -1.9364134      16000        
    519000   0.98911337     0.029880926   -3.4194813      1.4834846     -1.9359967      16000        
    520000   1.0005662      0.035039217   -3.439486       1.5006616     -1.9388244      16000        
    521000   1.0121452      0.071996311   -3.4591281      1.518028      -1.9411001      16000        
    522000   1.0070292      0.0474353     -3.4522499      1.510355      -1.941895       16000        
    523000   0.99773743    -0.0039983734  -3.4374963      1.4964191     -1.9410772      16000        
    524000   0.99575281     0.014303302   -3.435449       1.4934425     -1.9420065      16000        
    525000   0.99743479     0.010026369   -3.4388675      1.4959652     -1.9429024      16000        
    526000   0.99605893     0.011011155   -3.4376235      1.4939016     -1.9437218      16000        
    527000   0.99555921     0.048717202   -3.4386742      1.4931522     -1.945522       16000        
    528000   0.99935423    -0.011211062   -3.4450435      1.498844      -1.9461996      16000        
    529000   0.98877038     0.022181718   -3.4299643      1.4829702     -1.9469941      16000        
    530000   1.0003585      0.043819517   -3.4497192      1.5003502     -1.9493689      16000        
    531000   0.9995723      0.06033339    -3.4489662      1.499171      -1.9497952      16000        
    532000   0.99055718     0.01991208    -3.4349055      1.48565       -1.9492555      16000        
    533000   0.98976836     0.046712342   -3.4352214      1.484467      -1.9507544      16000        
    534000   0.99336459     0.0053042984  -3.44212        1.4898606     -1.9522594      16000        
    535000   0.98978214     0.009206997   -3.4374095      1.4844876     -1.9529218      16000        
    536000   0.99513326     0.0097601546  -3.4472392      1.4925133     -1.9547259      16000        
    537000   0.99469273     0.017181245   -3.4473053      1.4918526     -1.9554527      16000        
    538000   0.99126491     0.076767608   -3.4447438      1.4867115     -1.9580323      16000        
    539000   0.98222295     0.06595464    -3.430225       1.4731503     -1.9570748      16000        
    540000   1.000098       0.072708537   -3.4605019      1.4999594     -1.9605425      16000        
    541000   0.97813711     0.0051807926  -3.4254442      1.4670223     -1.9584219      16000        
    542000   0.99965631     0.039078224   -3.4621198      1.499297      -1.9628227      16000        
    543000   1.0097729      0.069589181   -3.478681       1.5144701     -1.9642109      16000        
    544000   0.99515599     0.049814213   -3.4570967      1.4925474     -1.9645493      16000        
    545000   0.98795603     0.018797144   -3.4464549      1.4817488     -1.9647061      16000        
    546000   0.99592971     0.03651056    -3.4597791      1.4937078     -1.9660713      16000        
    547000   0.99908114     0.052054435   -3.4658995      1.4984344     -1.9674651      16000        
    548000   0.99979656     0.035849408   -3.4681703      1.4995074     -1.9686629      16000        
    549000   0.98939682     0.038783406   -3.4529652      1.4839097     -1.9690555      16000        
    550000   0.99509542     0.016013741   -3.4624242      1.4924565     -1.9699676      16000        
    551000   0.99541606     0.073797306   -3.464436       1.4929375     -1.9714985      16000        
    552000   0.99923879     0.054615371   -3.4730039      1.4986708     -1.9743331      16000        
    553000   1.0051413      0.03759811    -3.4823608      1.5075235     -1.9748374      16000        
    554000   0.98948097     0.042935718   -3.45823        1.4840359     -1.9741941      16000        
    555000   0.98083382    -0.0065585107  -3.4454958      1.4710668     -1.974429       16000        
    556000   0.97767387     0.028441224   -3.4414811      1.4663275     -1.9751537      16000        
    557000   0.98813942     0.036948653   -3.4595692      1.4820239     -1.9775454      16000        
    558000   0.98882635     0.055722501   -3.4617443      1.4830541     -1.9786901      16000        
    559000   1.0004956     -0.022059789   -3.4804239      1.5005558     -1.9798681      16000        
    560000   0.99826513     0.015790507   -3.4787174      1.4972105     -1.9815069      16000        
    561000   0.9961239      0.01759884    -3.4756091      1.4939991     -1.98161        16000        
    562000   0.98645648     0.034867747   -3.4613045      1.4794998     -1.9818047      16000        
    563000   0.99790909     0.038200979   -3.482393       1.4966765     -1.9857165      16000        
    564000   0.98600726     0.040188649   -3.4641174      1.478826      -1.9852914      16000        
    565000   0.98054751     0.016448002   -3.4556191      1.4706374     -1.9849817      16000        
    566000   0.98563156    -0.0020706116  -3.4640371      1.4782625     -1.9857745      16000        
    567000   0.99410049     0.006071391   -3.4792759      1.4909643     -1.9883115      16000        
    568000   0.99575893    -0.0050133104  -3.4829684      1.4934517     -1.9895167      16000        
    569000   0.98779469     0.041739862   -3.4718645      1.4815068     -1.9903577      16000        
    570000   1.004814       0.0074668317  -3.4992621      1.5070326     -1.9922295      16000        
    571000   0.98560216     0.038206328   -3.4699882      1.4782184     -1.9917697      16000        
    572000   0.99490852     0.063202871   -3.486299       1.4921762     -1.9941227      16000        
    573000   0.99393533     0.007314149   -3.4847298      1.4907166     -1.9940131      16000        
    574000   0.98578367     0.069459107   -3.4739116      1.4784907     -1.9954209      16000        
    575000   0.9873179      0.014729695   -3.4766863      1.4807917     -1.9958946      16000        
    576000   0.98538365     0.015773008   -3.4750835      1.4778907     -1.9971927      16000        
    577000   0.99910572    -0.0083558404  -3.4979429      1.4984712     -1.9994717      16000        
    578000   0.98252434     0.031017523   -3.4730257      1.4736023     -1.9994234      16000        
    579000   0.98589948     0.047062574   -3.4782458      1.4786644     -1.9995815      16000        
    580000   0.98479637     0.035797026   -3.4777183      1.4770099     -2.0007084      16000        
    581000   0.98345171     0.068677823   -3.4782137      1.4749932     -2.0032206      16000        
    582000   0.97447359     0.0074593051  -3.4634378      1.4615277     -2.0019102      16000        
    583000   0.99373154     0.028429224   -3.4957672      1.490411      -2.0053563      16000        
    584000   0.99201509     0.056004945   -3.4944403      1.4878366     -2.0066036      16000        
    585000   0.977754       0.042334377   -3.4728057      1.4664477     -2.006358       16000        
    586000   0.9822144      0.022751691   -3.4804167      1.4731374     -2.0072793      16000        
    587000   0.99387845     0.047204601   -3.5006374      1.4906313     -2.010006       16000        
    588000   0.98479972     0.043799362   -3.4865667      1.4770149     -2.0095517      16000        
    589000   0.99215088     0.011904606   -3.4985131      1.4880403     -2.0104728      16000        
    590000   0.97069557     0.017813078   -3.4661021      1.4558613     -2.0102407      16000        
    591000   0.98657825    -0.0073116526  -3.4924305      1.4796824     -2.0127481      16000        
    592000   0.97557322     0.0087647582  -3.4758885      1.4631769     -2.0127116      16000        
    593000   0.99059987     0.028038893   -3.5006258      1.4857141     -2.0149117      16000        
    594000   0.97794612     0.066219561   -3.4827473      1.4667358     -2.0160114      16000        
    595000   0.98558489    -0.0042710831  -3.4950608      1.4781925     -2.0168682      16000        
    596000   0.98900547     0.052356674   -3.5025922      1.4833228     -2.0192695      16000        
    597000   0.98576256     0.012136492   -3.4969178      1.478459      -2.0184588      16000        
    598000   0.9862789      0.045320239   -3.4995684      1.4792334     -2.0203349      16000        
    599000   0.98750065     0.025249425   -3.5028073      1.4810658     -2.0217415      16000        
    600000   0.9979508      0.021682705   -3.5207378      1.4967391     -2.0239987      16000        
    601000   0.99171331     0.011345313   -3.511558       1.487384      -2.024174       16000        
    602000   0.96832613     0.044116956   -3.476198       1.4523076     -2.0238904      16000        
    603000   0.98162987     0.03921178    -3.4972052      1.4722608     -2.0249445      16000        
    604000   0.98557125     0.054574462   -3.5055611      1.4781721     -2.0273891      16000        
    605000   0.99383119    -0.011982406   -3.5182901      1.4905604     -2.0277297      16000        
    606000   0.9777045      0.037538702   -3.4946953      1.4663734     -2.0283218      16000        
    607000   0.98549262     0.040179878   -3.5077668      1.4780542     -2.0297126      16000        
    608000   0.98796705     0.042369046   -3.51338        1.4817653     -2.0316147      16000        
    609000   0.98732456     0.0020268093  -3.5135443      1.4808017     -2.0327426      16000        
    610000   0.99559872     0.086142402   -3.5289132      1.4932114     -2.0357018      16000        
    611000   0.97971737     0.070495174   -3.5039806      1.4693924     -2.0345882      16000        
    612000   0.97263721     0.05169301    -3.4920543      1.4587734     -2.0332809      16000        
    613000   0.98666457     0.030345115   -3.516822       1.4798119     -2.0370101      16000        
    614000   0.97729663     0.007668062   -3.5022011      1.4657617     -2.0364394      16000        
    615000   0.98862776     0.038161092   -3.5218679      1.4827563     -2.0391116      16000        
    616000   0.97715539     0.01579471    -3.5042657      1.4655499     -2.0387158      16000        
    617000   0.98985724    -0.0068108168  -3.5245077      1.4846003     -2.0399074      16000        
    618000   0.98965932     0.027563717   -3.5265594      1.4843034     -2.042256       16000        
    619000   0.97822439     0.0020081186  -3.509049       1.4671532     -2.0418958      16000        
    620000   0.97450128    -0.00088586669 -3.5033077      1.4615692     -2.0417384      16000        
    621000   0.98193811    -0.0093165063  -3.516724       1.4727231     -2.0440009      16000        
    622000   0.98419199    -0.021765811   -3.5221257      1.4761035     -2.0460222      16000        
    623000   0.98051983    -0.017895941   -3.5163113      1.4705959     -2.0457154      16000        
    624000   0.97220004     0.048004658   -3.5052158      1.4581178     -2.0470981      16000        
    625000   0.97951161     0.030887593   -3.5161404      1.4690838     -2.0470566      16000        
    626000   0.96695025     0.041282435   -3.4973732      1.4502441     -2.0471291      16000        
    627000   0.98358959     0.0082480969  -3.525854       1.4752        -2.0506541      16000        
    628000   0.98077592     0.0088602989  -3.5221911      1.47098       -2.0512111      16000        
    629000   0.99242245     0.039939206   -3.5424846      1.4884476     -2.054037       16000        
    630000   0.97501317     0.012494054   -3.5154865      1.4623369     -2.0531496      16000        
    631000   0.96907339     0.032702662   -3.5069405      1.4534284     -2.0535121      16000        
    632000   0.97900195     0.031751333   -3.523241       1.4683194     -2.0549216      16000        
    633000   0.98438398     0.063002701   -3.5340121      1.4763914     -2.0576207      16000        
    634000   0.97469268     0.00083826287 -3.5174002      1.4618563     -2.055544       16000        
    635000   0.97294675    -0.00939577    -3.5164819      1.4592377     -2.0572442      16000        
    636000   0.98290847     0.010276384   -3.5331048      1.4741784     -2.0589264      16000        
    637000   0.9803806      0.015447208   -3.5314239      1.4703871     -2.0610368      16000        
    638000   0.98594468     0.061779692   -3.5413664      1.4787322     -2.0626342      16000        
    639000   0.97560868    -0.0060086786  -3.5252994      1.4632301     -2.0620694      16000        
    640000   0.95811707     0.0082775225  -3.4969254      1.436996      -2.0599294      16000        
    641000   0.96970948    -0.0060389731  -3.5164777      1.4543824     -2.0620953      16000        
    642000   0.97928162     0.003310466   -3.534421       1.4687388     -2.0656822      16000        
    643000   0.9878111     -0.014375049   -3.548735       1.4815314     -2.0672036      16000        
    644000   0.98161371    -0.032860449   -3.539643       1.4722365     -2.0674065      16000        
    645000   0.97581915    -0.0061811955  -3.5312001      1.4635458     -2.0676543      16000        
    646000   0.98065612     0.011039759   -3.5399748      1.4708003     -2.0691745      16000        
    647000   0.97279747    -0.041764664   -3.5270799      1.4590138     -2.0680661      16000        
    648000   0.97783421     0.0053647111  -3.5370491      1.466568      -2.0704812      16000        
    649000   0.96822038     0.032500212   -3.5231754      1.452149      -2.0710263      16000        
    650000   0.9714451      0.0029427731  -3.5292971      1.4569855     -2.0723116      16000        
    651000   0.97364254     0.0047339957  -3.5333572      1.4602813     -2.0730759      16000        
    652000   0.97078148     0.050986548   -3.5302315      1.4559902     -2.0742413      16000        
    653000   0.97943336     0.022764474   -3.5450386      1.4689664     -2.0760722      16000        
    654000   0.96604077     0.0081091515  -3.5239161      1.44888       -2.0750361      16000        
    655000   0.97252477     0.0093745015  -3.5354769      1.4586048     -2.0768721      16000        
    656000   0.99348385     0.070884091   -3.572613       1.4900395     -2.0825735      16000        
    657000   0.9716832     -0.011411025   -3.5371024      1.4573426     -2.0797598      16000        
    658000   0.97771952     0.018746528   -3.5473653      1.466396      -2.0809694      16000        
    659000   0.97463903     0.040359275   -3.5447817      1.4617758     -2.0830059      16000        
    660000   0.97843843     0.0076582168  -3.5506309      1.4674742     -2.0831567      16000        
    661000   0.96433757     0.00077977235 -3.5281599      1.4463255     -2.0818343      16000        
    662000   0.9755598     -0.0018832511  -3.5470766      1.4631568     -2.0839198      16000        
    663000   0.96793446     0.074165422   -3.5372016      1.4517202     -2.0854814      16000        
    664000   0.97783025     0.061394561   -3.5543285      1.466562      -2.0877665      16000        
    665000   0.97366439     0.012703841   -3.5477571      1.460314      -2.087443       16000        
    666000   0.9696281      0.00080765554 -3.5421811      1.4542603     -2.0879207      16000        
    667000   0.97220542     0.027791456   -3.5481018      1.4581258     -2.089976       16000        
    668000   0.97829888     0.0094766547  -3.5578755      1.4672649     -2.0906106      16000        
    669000   0.96765893     0.033422322   -3.5419626      1.451307      -2.0906556      16000        
    670000   0.98183705     0.021355945   -3.5657116      1.4725715     -2.0931401      16000        
    671000   0.97415133     0.016141077   -3.554437       1.4610443     -2.0933926      16000        
    672000   0.96753605    -0.0010013483  -3.5440312      1.4511227     -2.0929086      16000        
    673000   0.96117896     0.052684858   -3.5362699      1.4415882     -2.0946816      16000        
    674000   0.96680818     0.015318363   -3.5447564      1.450031      -2.0947255      16000        
    675000   0.9793351      0.013486807   -3.5665234      1.468819      -2.0977044      16000        
    676000   0.97257403     0.014918264   -3.5571685      1.4586787     -2.0984898      16000        
    677000   0.9740972      0.039067539   -3.5602678      1.4609632     -2.0993047      16000        
    678000   0.98321391     0.036819597   -3.5767663      1.4746365     -2.1021298      16000        
    679000   0.97186074     0.01313148    -3.5589477      1.4576089     -2.1013388      16000        
    680000   0.96772427     0.03761477    -3.5532666      1.451405      -2.1018616      16000        
    681000   0.97253579     0.06585959    -3.5624249      1.4586213     -2.1038036      16000        
    682000   0.96011503     0.037344622   -3.5427544      1.4399925     -2.1027618      16000        
    683000   0.96580738     0.015971311   -3.5529932      1.44853       -2.1044633      16000        
    684000   0.97018064     0.032430359   -3.561564       1.4550891     -2.106475       16000        
    685000   0.98338988     0.10109445    -3.5843773      1.4749004     -2.1094769      16000        
    686000   0.96306961     0.0053551612  -3.5510065      1.4444238     -2.1065826      16000        
    687000   0.95859382     0.028711055   -3.5459242      1.437711      -2.1082132      16000        
    688000   0.98655517     0.023799351   -3.5911293      1.4796478     -2.1114815      16000        
    689000   0.96938707     0.017771321   -3.5652417      1.4538988     -2.1113429      16000        
    690000   0.9713944      0.018029228   -3.5681971      1.4569095     -2.1112877      16000        
    691000   0.96610501     0.045269779   -3.5617801      1.4489764     -2.1128037      16000        
    692000   0.96154201    -0.030156128   -3.5538629      1.4421327     -2.1117302      16000        
    693000   0.96928022     0.019245196   -3.5674665      1.4537386     -2.1137279      16000        
    694000   0.96306825     0.015186971   -3.5588307      1.4444218     -2.1144089      16000        
    695000   0.96891454     0.046098749   -3.5719608      1.4531901     -2.1187707      16000        
    696000   0.97383661    -0.0058341434  -3.578612       1.4605723     -2.1180397      16000        
    697000   0.97478319     0.029461836   -3.5813302      1.461992      -2.1193382      16000        
    698000   0.9652752      0.032870397   -3.5678223      1.4477318     -2.1200905      16000        
    699000   0.97795318     0.040302526   -3.5892315      1.4667464     -2.1224851      16000        
    700000   0.97929552     0.044268276   -3.593027       1.4687597     -2.1242674      16000        
    701000   0.96681435    -0.026618911   -3.5719589      1.4500403     -2.1219187      16000        
    702000   0.96002252     0.04396145    -3.5629004      1.4398538     -2.1230466      16000        
    703000   0.96611789     0.052734579   -3.5735408      1.4489957     -2.1245451      16000        
    704000   0.96091521     0.043950529   -3.5661073      1.4411926     -2.1249147      16000        
    705000   0.96881179     0.0028650762  -3.5792813      1.453036      -2.1262453      16000        
    706000   0.98397091     0.035761732   -3.6053138      1.4757719     -2.1295419      16000        
    707000   0.97593764    -0.022210487   -3.5926218      1.4637235     -2.1288984      16000        
    708000   0.97199674     0.0090872762  -3.5873654      1.4578129     -2.1295525      16000        
    709000   0.96333138     0.011119747   -3.5739789      1.4448164     -2.1291625      16000        
    710000   0.95630771     0.027555285   -3.564333       1.4342823     -2.1300507      16000        
    711000   0.96368062    -0.0039699197  -3.5775218      1.4453402     -2.1321816      16000        
    712000   0.97183499     0.014192799   -3.5904093      1.4575703     -2.132839       16000        
    713000   0.96827336    -0.0039640309  -3.5851351      1.4522285     -2.1329067      16000        
    714000   0.95172522    -0.017216885   -3.5602555      1.4274094     -2.1328461      16000        
    715000   0.97364703     0.022291787   -3.5969283      1.460288      -2.1366403      16000        
    716000   0.97706588     0.064045204   -3.604263       1.4654156     -2.1388474      16000        
    717000   0.96684931     0.0049900861  -3.5866672      1.4500927     -2.1365745      16000        
    718000   0.97257699     0.037944123   -3.5978638      1.4586831     -2.1391807      16000        
    719000   0.98597333     0.066048305   -3.6213834      1.4787751     -2.1426083      16000        
    720000   0.96071762     0.042328946   -3.5811441      1.4408963     -2.1402478      16000        
    721000   0.9621835      0.040693955   -3.5851364      1.4430948     -2.1420415      16000        
    722000   0.96151338     0.0016715603  -3.5833082      1.4420898     -2.1412184      16000        
    723000   0.9648055      0.01418225    -3.5902164      1.4470273     -2.143189       16000        
    724000   0.95838093     0.029253504   -3.5808098      1.4373917     -2.1434181      16000        
    725000   0.95963632     0.037987734   -3.5849543      1.4392746     -2.1456798      16000        
    726000   0.97535378    -0.0011921395  -3.6105777      1.4628478     -2.1477299      16000        
    727000   0.96611161     0.035820594   -3.5965202      1.4489863     -2.1475339      16000        
    728000   0.95894736     0.02884491    -3.5858823      1.4382412     -2.147641       16000        
    729000   0.9565156     -0.0067271812  -3.5826636      1.4345941     -2.1480695      16000        
    730000   0.95849868    -0.00034375043 -3.5860064      1.4375683     -2.1484381      16000        
    731000   0.96703967    -0.020356845   -3.6002119      1.4503782     -2.1498337      16000        
    732000   0.96649196     0.0095943022  -3.6015946      1.4495567     -2.1520378      16000        
    733000   0.95984426     0.016343889   -3.5918552      1.4395864     -2.1522688      16000        
    734000   0.95998315     0.019718583   -3.5929441      1.4397947     -2.1531493      16000        
    735000   0.95775312     0.047686207   -3.5905298      1.4364501     -2.1540797      16000        
    736000   0.96830726     0.026601875   -3.6083668      1.4522793     -2.1560874      16000        
    737000   0.95667429     0.01027135    -3.5903398      1.4348321     -2.1555078      16000        
    738000   0.94924848    -0.0077178245  -3.5790033      1.4236947     -2.1553085      16000        
    739000   0.96492424     0.038708785   -3.6064177      1.4472054     -2.1592123      16000        
    740000   0.96474421     0.012933489   -3.6063197      1.4469354     -2.1593843      16000        
    741000   0.95340578    -0.012355408   -3.5888039      1.4299299     -2.158874       16000        
    742000   0.98109656     0.044713541   -3.6355196      1.4714609     -2.1640588      16000        
    743000   0.97317147     0.024001937   -3.6223801      1.4595747     -2.1628054      16000        
    744000   0.97598647     0.004795408   -3.6281676      1.4637967     -2.1643709      16000        
    745000   0.97255054     0.0017295974  -3.6233609      1.4586435     -2.1647174      16000        
    746000   0.97325591     0.037218661   -3.6265421      1.4597014     -2.1668408      16000        
    747000   0.95501024    -0.016592938   -3.5971354      1.4323363     -2.1647991      16000        
    748000   0.96611051     0.020210853   -3.6165361      1.4489846     -2.1675515      16000        
    749000   0.9648661     -0.016801947   -3.6149558      1.4471182     -2.1678376      16000        
    750000   0.96872986     0.006491275   -3.621932       1.4529132     -2.1690188      16000        
    751000   0.95379899    -0.027768323   -3.600222       1.4305196     -2.1697023      16000        
    752000   0.973153      -0.01858434    -3.6308864      1.459547      -2.1713394      16000        
    753000   0.96302782    -0.0083661632  -3.6152031      1.4443612     -2.1708419      16000        
    754000   0.97721758     0.0064301935  -3.6390999      1.4656431     -2.1734567      16000        
    755000   0.96207433     0.0026487155  -3.6157842      1.4429311     -2.1728531      16000        
    756000   0.96357635    -0.015555818   -3.6184433      1.4451838     -2.1732594      16000        
    757000   0.96579677     0.013830989   -3.6238866      1.4485141     -2.1753726      16000        
    758000   0.96651752     0.013750077   -3.6265982      1.4495951     -2.1770031      16000        
    759000   0.95856248    -0.016950141   -3.6144078      1.437664      -2.1767438      16000        
    760000   0.96154221    -0.0026299947  -3.6201751      1.442133      -2.1780421      16000        
    761000   0.95155682     0.036398985   -3.6054114      1.4271568     -2.1782546      16000        
    762000   0.9576982     -0.019357433   -3.6149874      1.4363677     -2.1786197      16000        
    763000   0.9471512     -0.027737736   -3.5988792      1.4205492     -2.17833        16000        
    764000   0.96039869     0.028657242   -3.6227076      1.440418      -2.1822896      16000        
    765000   0.94889535     0.043522117   -3.6050274      1.4231651     -2.1818623      16000        
[...]
    816000   0.96226526     0.076637725   -3.6751519      1.4432175     -2.2319344      16000        
    817000   0.9722693      0.0149492     -3.6894563      1.4582217     -2.2312347      16000        
    818000   0.95320282     0.017575427   -3.6598586      1.4296255     -2.2302331      16000        
    819000   0.96358247    -0.013074178   -3.6769744      1.445193      -2.2317814      16000        
    820000   0.95730628     0.023042641   -3.6673337      1.4357799     -2.2315538      16000        
    821000   0.96644677     0.011152475   -3.6837595      1.4494889     -2.2342705      16000        
    822000   0.95647194     0.0057702395  -3.6683065      1.4345286     -2.2337779      16000        
    823000   0.95454655     0.005871816   -3.6662664      1.4316408     -2.2346255      16000        
    824000   0.95510894     0.01098404    -3.6678106      1.4324843     -2.2353263      16000        
    825000   0.94879202    -0.0080610465  -3.6598199      1.4230101     -2.2368098      16000        
    826000   0.96212512    -0.0041649204  -3.6822555      1.4430073     -2.2392482      16000        
    827000   0.94715579     0.024357671   -3.6587998      1.4205561     -2.2382437      16000        
    828000   0.95053839     0.01408306    -3.6647132      1.4256294     -2.2390838      16000        
    829000   0.94968331     0.014973975   -3.664534       1.4243469     -2.2401871      16000        
    830000   0.96086367    -0.0074813794  -3.6834856      1.4411153     -2.2423703      16000        
    831000   0.9498995     -0.007259376   -3.6664672      1.4246711     -2.241796       16000        
    832000   0.94459093     0.04088425    -3.6604848      1.4167093     -2.2437755      16000        
    833000   0.95410758     0.031163679   -3.6747041      1.4309825     -2.2437216      16000        
    834000   0.95889152     0.013173438   -3.6840717      1.4381575     -2.2459143      16000        
    835000   0.94699675     0.05502555    -3.6656784      1.4203176     -2.2453608      16000        
    836000   0.93464048    -0.0074317356  -3.6457439      1.4017855     -2.2439584      16000        
    837000   0.96185278     0.05287278    -3.6916554      1.4425988     -2.2490566      16000        
    838000   0.95336391     0.050257728   -3.6792873      1.4298671     -2.2494202      16000        
    839000   0.95763103     0.024151766   -3.6856853      1.436267      -2.2494183      16000        
    840000   0.95710979    -0.034351157   -3.6858177      1.4354852     -2.2503325      16000        
    841000   0.94029696     0.040142522   -3.6612428      1.4102691     -2.2509737      16000        
    842000   0.95459326     0.029776771   -3.6840417      1.4317109     -2.2523308      16000        
    843000   0.95432315     0.050816064   -3.6850254      1.4313058     -2.2537196      16000        
    844000   0.95301508     0.041813941   -3.6838446      1.4293439     -2.2545006      16000        
    845000   0.9528543     -0.00056182591 -3.6835481      1.4291028     -2.2544454      16000        
    846000   0.95969202     0.026631654   -3.6952798      1.4393581     -2.2559217      16000        
    847000   0.94656002    -0.0081973043  -3.6745123      1.4196626     -2.2548497      16000        
    848000   0.96207955     0.03547997    -3.702456       1.4429389     -2.2595171      16000        
    849000   0.94781784     0.0010127291  -3.6794508      1.421549      -2.2579018      16000        
    850000   0.94846931     0.036026558   -3.6818071      1.4225261     -2.259281       16000        
    851000   0.96205318    -0.00039695506 -3.7038622      1.4428994     -2.2609628      16000        
    852000   0.95269996     0.0013870374  -3.6896035      1.4288713     -2.2607322      16000        
    853000   0.94982026    -0.040682472   -3.6842899      1.4245523     -2.2597376      16000        
    854000   0.9485274     -0.027869139   -3.6840311      1.4226132     -2.2614179      16000        
    855000   0.95362429     0.0099809814  -3.6949077      1.4302576     -2.2646501      16000        
    856000   0.95528591     0.053508583   -3.6980266      1.4327498     -2.2652768      16000        
    857000   0.94341064     0.021803816   -3.679242       1.4149391     -2.2643029      16000        
    858000   0.94067927     0.0031677397  -3.6755742      1.4108425     -2.2647317      16000        
    859000   0.94862783     0.00063970051 -3.6896843      1.4227639     -2.2669204      16000        
    860000   0.94015963    -0.019921812   -3.6758013      1.4100632     -2.2657381      16000        
    861000   0.9508963      0.0099522887  -3.6946142      1.4261662     -2.2684481      16000        
    862000   0.95123189    -0.0057748795  -3.695033       1.4266695     -2.2683635      16000        
    863000   0.95032758     0.013350713   -3.6956139      1.4253132     -2.2703007      16000        
    864000   0.94655033     0.031167191   -3.6907324      1.419648      -2.2710844      16000        
    865000   0.93887602    -0.024206168   -3.6784246      1.408138      -2.2702866      16000        
    866000   0.94891997    -0.024586449   -3.6958213      1.423202      -2.2726192      16000        
    867000   0.94627148    -0.020918017   -3.6927011      1.4192298     -2.2734713      16000        
    868000   0.95037348     0.00091191455 -3.7011459      1.425382      -2.2757639      16000        
    869000   0.95418808     0.00079029613 -3.707589       1.4311032     -2.2764857      16000        
    870000   0.95503983    -0.02000604    -3.7087639      1.4323807     -2.2763832      16000        
    871000   0.94562307     0.027369417   -3.6959871      1.4182573     -2.2777298      16000        
    872000   0.95052254     0.025555288   -3.7034877      1.4256056     -2.2778821      16000        
    873000   0.95635951    -0.024886478   -3.7128185      1.43436       -2.2784585      16000        
    874000   0.95179143    -0.011893919   -3.7083264      1.4275087     -2.2808177      16000        
    875000   0.94577983     0.027084245   -3.6996975      1.4184924     -2.2812051      16000        
    876000   0.9528218     -0.0031355339  -3.7106766      1.429054      -2.2816225      16000        
    877000   0.95485659     0.049647944   -3.716369       1.4321059     -2.2842631      16000        
    878000   0.94894357     0.050625831   -3.707191       1.4232374     -2.2839535      16000        
    879000   0.95093378    -0.009123378   -3.7105416      1.4262224     -2.2843193      16000        
    880000   0.94915985     0.025954713   -3.7090594      1.4235618     -2.2854976      16000        
    881000   0.94499181    -0.0077392658  -3.7025905      1.4173105     -2.2852799      16000        
    882000   0.94628877     0.0074559067  -3.7053334      1.4192557     -2.2860777      16000        
    883000   0.94241874    -0.0054277979  -3.7004227      1.4134514     -2.2869713      16000        
    884000   0.94477818     0.015894506   -3.7057519      1.4169901     -2.2887618      16000        
    885000   0.94938381     0.027566712   -3.713774       1.4238977     -2.2898763      16000        
    886000   0.9340247      0.0050975491  -3.6898323      1.4008619     -2.2889704      16000        
    887000   0.9534129      0.033682387   -3.7214576      1.4299406     -2.291517       16000        
    888000   0.93612157     0.044715572   -3.6954133      1.4040068     -2.2914065      16000        
    889000   0.95369911     0.025757318   -3.7238502      1.4303698     -2.2934804      16000        
    890000   0.94544615     0.0062856252  -3.7111653      1.4179919     -2.2931734      16000        
    891000   0.95667662     0.0049656261  -3.7304943      1.4348355     -2.2956588      16000        
    892000   0.94831703     0.019449155   -3.7180595      1.4222977     -2.2957617      16000        
    893000   0.9480928      0.019429144   -3.7183407      1.4219614     -2.2963793      16000        
    894000   0.95491429     0.013993088   -3.7311371      1.4321924     -2.2989447      16000        
    895000   0.9371061     -0.0015698696  -3.7020555      1.4054834     -2.2965721      16000        
    896000   0.93949194     0.021582441   -3.7070956      1.4090617     -2.2980339      16000        
    897000   0.94066998    -0.027608522   -3.70945        1.4108286     -2.2986214      16000        
    898000   0.93329215     0.02651449    -3.6995251      1.3997632     -2.2997619      16000        
    899000   0.94745696     0.015866      -3.7227646      1.4210078     -2.3017568      16000        
    900000   0.94521107     0.0093667663  -3.7190165      1.4176394     -2.3013771      16000        
    901000   0.93458698     0.015772601   -3.7034836      1.4017052     -2.3017783      16000        
    902000   0.94551013     0.023230476   -3.7230295      1.4180879     -2.3049416      16000        
    903000   0.96338566     0.023159742   -3.7517756      1.4448979     -2.3068777      16000        
    904000   0.93069745     0.017920088   -3.7000331      1.3958717     -2.3041614      16000        
    905000   0.95064034     0.019957365   -3.7328543      1.4257823     -2.307072       16000        
    906000   0.93129227    -0.0075091947  -3.7030466      1.3967638     -2.3062828      16000        
    907000   0.95215858     0.057601065   -3.7380498      1.4280593     -2.3099905      16000        
    908000   0.94738683     0.025009613   -3.7307486      1.4209026     -2.3098459      16000        
    909000   0.9439038      0.0029491447  -3.7257074      1.4156787     -2.3100287      16000        
    910000   0.94610346     0.01914358    -3.7298267      1.4189778     -2.3108489      16000        
    911000   0.93540272     0.066100509   -3.7152081      1.4029287     -2.3122795      16000        
    912000   0.94928513     0.055659251   -3.7374629      1.4237497     -2.3137132      16000        
    913000   0.95555328     0.04353394    -3.7478798      1.4331508     -2.3147291      16000        
    914000   0.94361197    -0.0319022     -3.7284687      1.415241      -2.3132277      16000        
    915000   0.94466969    -0.028085888   -3.7312683      1.4168274     -2.3144409      16000        
    916000   0.9393069      0.020351891   -3.7246095      1.4087842     -2.3158253      16000        
    917000   0.94527999     0.0070245578  -3.7348571      1.4177427     -2.3171143      16000        
    918000   0.94805981     0.042377701   -3.7402842      1.421912      -2.3183723      16000        
    919000   0.94631621    -0.010910866   -3.7377998      1.4192969     -2.318503       16000        
    920000   0.92885019     0.025587241   -3.7118822      1.3931011     -2.318781       16000        
    921000   0.94056823     0.020174226   -3.7302854      1.410676      -2.3196094      16000        
    922000   0.92872347    -0.00088886667 -3.7132632      1.3929111     -2.3203521      16000        
    923000   0.95617805     0.048843893   -3.7581493      1.4340878     -2.3240615      16000        
    924000   0.94968383     0.023579762   -3.7485506      1.4243477     -2.3242029      16000        
    925000   0.95197676     0.0034707208  -3.7519083      1.4277866     -2.3241217      16000        
    926000   0.93671947     0.045945673   -3.7286992      1.4049036     -2.3237956      16000        
    927000   0.93247585     0.0031528264  -3.7229507      1.3985389     -2.3244118      16000        
    928000   0.94865289     0.0010807366  -3.7493049      1.4228015     -2.3265034      16000        
    929000   0.9465629      0.021673102   -3.7472322      1.4196669     -2.3275653      16000        
    930000   0.94862856    -0.0032138479  -3.7502357      1.422765      -2.3274707      16000        
    931000   0.93698944     0.0045547932  -3.7327834      1.4053085     -2.3274749      16000        
    932000   0.93934461     0.017632151   -3.7379687      1.4088408     -2.3291279      16000        
    933000   0.93744251     0.014372683   -3.7356005      1.405988      -2.3296125      16000        
    934000   0.93482699     0.013464127   -3.7319835      1.4020652     -2.3299183      16000        
    935000   0.94188018     0.008911693   -3.7445823      1.4126437     -2.3319386      16000        
    936000   0.94656903     0.037310011   -3.7533316      1.4196761     -2.3336555      16000        
    937000   0.93731942     0.024519756   -3.7397062      1.4058034     -2.3339028      16000        
    938000   0.9400057      0.013815264   -3.744701       1.4098323     -2.3348687      16000        
    939000   0.94651033    -0.024206392   -3.755166       1.419588      -2.335578       16000        
    940000   0.94342008     0.013979831   -3.7514087      1.4149532     -2.3364555      16000        
    941000   0.95481451     0.026225027   -3.7715784      1.4320427     -2.3395356      16000        
    942000   0.9513441      0.019544331   -3.7666445      1.4268378     -2.3398067      16000        
    943000   0.94599241    -0.00045630518 -3.7579904      1.4188112     -2.3391791      16000        
    944000   0.94878549     0.040907003   -3.7643408      1.4230003     -2.3413405      16000        
    945000   0.93348733    -0.003278374   -3.7388704      1.400056      -2.3388144      16000        
    946000   0.94064772    -0.009987872   -3.7506445      1.4107952     -2.3398493      16000        
    947000   0.94271697     0.039428252   -3.7564043      1.4138987     -2.3425056      16000        
    948000   0.94462457    -0.0062129197  -3.7591231      1.4167597     -2.3423634      16000        
    949000   0.92621842     0.001918154   -3.7314833      1.389154      -2.3423293      16000        
    950000   0.94415247     0.044130686   -3.7616386      1.4160517     -2.3455869      16000        
    951000   0.93663928     0.024701587   -3.7496116      1.4047833     -2.3448283      16000        
    952000   0.93003346    -0.058950964   -3.7388078      1.3948758     -2.343932       16000        
    953000   0.92941668    -0.073902736   -3.7386164      1.3939508     -2.3446656      16000        
    954000   0.9499021      0.054201166   -3.7741805      1.424675      -2.3495054      16000        
    955000   0.94350728     0.023349668   -3.7641277      1.415084      -2.3490437      16000        
    956000   0.94321333    -0.014147135   -3.7634578      1.4146431     -2.3488147      16000        
    957000   0.95448205     0.028966243   -3.7838879      1.4315441     -2.3523438      16000        
    958000   0.94586237     0.0050222088  -3.7700703      1.4186162     -2.3514541      16000        
    959000   0.9433439      0.081321555   -3.7678944      1.414839      -2.3530554      16000        
    960000   0.92894176    -0.030132921   -3.7444084      1.3932385     -2.3511699      16000        
    961000   0.92905514    -0.0091650642  -3.744886       1.3934085     -2.3514775      16000        
    962000   0.94665142     0.012562806   -3.774832       1.4197996     -2.3550324      16000        
    963000   0.93786364    -0.03454386    -3.7611761      1.4066196     -2.3545565      16000        
    964000   0.94335414     0.045994884   -3.7724704      1.4148543     -2.357616       16000        
    965000   0.93461486    -0.0021029047  -3.7584173      1.401747      -2.3566703      16000        
    966000   0.93575413     0.022398323   -3.7607831      1.4034557     -2.3573274      16000        
    967000   0.92667041    -0.0045478045  -3.7472076      1.3898319     -2.3573757      16000        
    968000   0.94139332    -0.04651295    -3.7705308      1.4119135     -2.3586173      16000        
    969000   0.92626043     0.0067397835  -3.7485583      1.389217      -2.3593413      16000        
    970000   0.93866651     0.012972855   -3.7702402      1.4078238     -2.3624164      16000        
    971000   0.93043157    -0.015970394   -3.7566163      1.3954729     -2.3611434      16000        
    972000   0.94509304     0.01549439    -3.7812015      1.4174624     -2.3637391      16000        
    973000   0.93049088     0.02079601    -3.7591585      1.3955618     -2.3635966      16000        
    974000   0.9441981      0.014133844   -3.7807418      1.4161201     -2.3646217      16000        
    975000   0.94768308     0.02200519    -3.7870777      1.4213469     -2.3657308      16000        
    976000   0.94667644     0.016967562   -3.787463       1.4198372     -2.3676259      16000        
    977000   0.93394092    -0.046586623   -3.7664622      1.4007363     -2.3657259      16000        
    978000   0.94487793     0.030147181   -3.7868462      1.4171397     -2.3697065      16000        
    979000   0.92219244     0.01189783    -3.7509112      1.3831158     -2.3677955      16000        
    980000   0.93407939     0.0082794186  -3.7697276      1.400944      -2.3687836      16000        
    981000   0.93746219    -0.01090847    -3.7765263      1.4060175     -2.3705088      16000        
    982000   0.93001326    -0.0048003251  -3.7650071      1.3948455     -2.3701615      16000        
    983000   0.94148164     0.022972331   -3.7830449      1.4120459     -2.3709989      16000        
    984000   0.93819993     0.013947759   -3.7792275      1.407124      -2.3721035      16000        
    985000   0.92402679    -0.0042519609  -3.7574087      1.3858669     -2.3715417      16000        
    986000   0.92094922     0.0080459558  -3.7536953      1.3812512     -2.3724441      16000        
    987000   0.94743745     0.028072301   -3.7980892      1.4209785     -2.3771107      16000        
    988000   0.93885846     0.019481751   -3.7854101      1.4081116     -2.3772984      16000        
    989000   0.93549208    -0.0051699011  -3.7794304      1.4030627     -2.3763677      16000        
    990000   0.93008573    -0.010839014   -3.7716912      1.3949542     -2.376737       16000        
    991000   0.93758858    -0.0022835452  -3.7851044      1.4062071     -2.3788973      16000        
    992000   0.92762879     0.016681768   -3.7699226      1.3912693     -2.3786534      16000        
    993000   0.92717576     0.048648778   -3.7704609      1.3905898     -2.3798711      16000        
    994000   0.94349198    -0.015631814   -3.7960954      1.4150611     -2.3810343      16000        
    995000   0.93281229     0.04407461    -3.7805561      1.3990435     -2.3815125      16000        
    996000   0.9315648      0.0028876774  -3.7795405      1.3971725     -2.382368       16000        
    997000   0.92458163     0.039890735   -3.768385       1.3866991     -2.3816859      16000        
    998000   0.93558646    -0.0030375237  -3.7868683      1.4032043     -2.3836641      16000        
    999000   0.92082237    -0.041638469   -3.7635566      1.3810609     -2.3824957      16000        
   1000000   0.94839959    -0.0092328525  -3.8087805      1.4224216     -2.3863589      16000        
Loop time of 1106.89 on 4 procs for 1000000 steps with 8000 atoms

Performance: 390281.334 tau/day, 903.429 timesteps/s
97.8% CPU use with 4 MPI tasks x no OpenMP threads

MPI task timing breakdown:
Section |  min time  |  avg time  |  max time  |%varavg| %total
---------------------------------------------------------------
Pair    | 753.08     | 787.18     | 804.92     |  72.6 | 71.12
Neigh   | 138.74     | 145.23     | 149.4      |  34.4 | 13.12
Comm    | 118.76     | 141.43     | 183.13     | 211.5 | 12.78
Output  | 0.022186   | 0.026362   | 0.037443   |   3.9 |  0.00
Modify  | 25.144     | 25.987     | 26.53      |  11.0 |  2.35
Other   |            | 7.036      |            |       |  0.64

Nlocal:           2000 ave        2098 max        1896 min
Histogram: 1 1 0 0 0 0 0 0 0 2
Nghost:        3267.75 ave        3307 max        3227 min
Histogram: 1 0 1 0 0 0 0 0 1 1
Neighs:        51819.8 ave       54342 max       48563 min
Histogram: 1 0 0 1 0 0 0 0 0 2

Total # of neighbors = 207279
Ave neighs/atom = 25.909875
Neighbor list builds = 50000
Dangerous builds not checked
Total wall time: 0:18:26
