LAMMPS (23 Jun 2022 - Update 2)
# 3d Lennard-Jones melt

units		lj
atom_style	atomic
boundary	p p p

lattice	sc 0.5
Lattice spacing in x,y,z = 1.259921 1.259921 1.259921
region		box block 0 20 0 20 0 20
create_box	1 box
Created orthogonal box = (0 0 0) to (25.198421 25.198421 25.198421)
  1 by 1 by 2 MPI processor grid
create_atoms	1 box
Created 8000 atoms
  using lattice units in orthogonal box = (0 0 0) to (25.198421 25.198421 25.198421)
  create_atoms CPU = 0.002 seconds
mass		1 1.0
#read_data	Configuration-PBC.int

velocity        all create 1.5 22233 mom yes rot yes dist gaussian

pair_style	lj/cut 2.5
pair_coeff	1 1 1.0 1.0 2.5

neighbor	0.3 bin
neigh_modify	every 20 delay 0 check no

thermo_style    custom step temp press pe ke etotal vol
thermo          1000
thermo_modify   flush yes

fix		1 all nve

#dump            1 all custom 1000 Data.dump id type xu yu zu
#dump_modify     1 flush yes

#dump		2 all image 25 image.*.jpg type type axes yes 0.8 0.02 view 60 -30
#dump_modify	2 pad 3

#dump		3 all movie 25 movie.mpg type type axes yes 0.8 0.02 view 60 -30
#dump_modify	3 pad 3

run		1000000
Generated 0 of 0 mixed pair_coeff terms from geometric mixing rule
Neighbor list info ...
  update every 20 steps, delay 0 steps, check no
  max neighbors/atom: 2000, page size: 100000
  master list distance cutoff = 2.8
  ghost atom cutoff = 2.8
  binsize = 1.4, bins = 18 18 18
  1 neighbor lists, perpetual/occasional/extra = 1 0 0
  (1) pair lj/cut, perpetual
      attributes: half, newton on
      pair build: half/bin/atomonly/newton
      stencil: half/bin/3d
      bin: standard
Per MPI rank memory allocation (min/avg/max) = 2.907 | 2.907 | 2.907 Mbytes
   Step          Temp          Press          PotEng         KinEng         TotEng         Volume    
         0   1.5           -1.5986234     -3.1233389      2.2497188     -0.87362016     16000        
      1000   1.4290812      0.5978441     -3.0747748      2.1433539     -0.93142085     16000        
      2000   1.4247917      0.60512283    -3.0727422      2.1369204     -0.93582179     16000        
      3000   1.4365392      0.55584523    -3.0956439      2.1545394     -0.94110456     16000        
      4000   1.4320608      0.55107112    -3.0932922      2.1478227     -0.94546948     16000        
      5000   1.4368616      0.52518684    -3.1051491      2.155023      -0.9501261      16000        
      6000   1.418483       0.58718057    -3.0814783      2.1274585     -0.95401976     16000        
      7000   1.4253312      0.55910243    -3.0970553      2.1377295     -0.95932578     16000        
      8000   1.4088003      0.56965771    -3.0754381      2.1129363     -0.96250174     16000        
      9000   1.4151018      0.56792064    -3.0902538      2.1223874     -0.96786638     16000        
     10000   1.4133583      0.57955013    -3.0916318      2.1197725     -0.97185924     16000        
     11000   1.4059313      0.58276011    -3.0850659      2.1086333     -0.97643262     16000        
     12000   1.4020166      0.56266709    -3.083369       2.102762      -0.98060696     16000        
     13000   1.3952959      0.60368954    -3.0770655      2.0926822     -0.98438333     16000        
     14000   1.3961061      0.54529498    -3.083311       2.0938974     -0.98941365     16000        
     15000   1.3916045      0.56651797    -3.0805564      2.0871458     -0.99341052     16000        
     16000   1.4035653      0.50908971    -3.1027648      2.1050848     -0.99767998     16000        
     17000   1.4042167      0.55931235    -3.1081194      2.1060618     -1.0020576      16000        
     18000   1.3973611      0.48508881    -3.1018136      2.0957796     -1.006034       16000        
     19000   1.3930058      0.51117684    -3.0997648      2.0892475     -1.0105173      16000        
     20000   1.3926585      0.53660776    -3.1033481      2.0887267     -1.0146215      16000        
     21000   1.3967489      0.51007053    -3.1138082      2.0948614     -1.0189467      16000        
     22000   1.369254       0.58597721    -3.0757626      2.0536243     -1.0221383      16000        
     23000   1.3941733      0.48768019    -3.1181032      2.0909985     -1.0271047      16000        
     24000   1.3784367      0.53075282    -3.0984644      2.0673966     -1.0310678      16000        
     25000   1.3804662      0.48043201    -3.1051433      2.0704404     -1.0347029      16000        
     26000   1.3830099      0.48787217    -3.1126227      2.0742555     -1.0383672      16000        
     27000   1.3665505      0.51074683    -3.0916081      2.0495696     -1.0420385      16000        
     28000   1.3757723      0.46918095    -3.1101183      2.0634005     -1.0467178      16000        
     29000   1.3703585      0.48604286    -3.105834       2.0552808     -1.0505531      16000        
     30000   1.3730386      0.44708555    -3.1137172      2.0593005     -1.0544167      16000        
     31000   1.3781937      0.46187549    -3.1256451      2.0670321     -1.058613       16000        
     32000   1.3587743      0.52049108    -3.0998422      2.0379067     -1.0619355      16000        
     33000   1.3614612      0.47627261    -3.1086915      2.0419365     -1.066755       16000        
     34000   1.3576806      0.49568394    -3.1069041      2.0362664     -1.0706377      16000        
     35000   1.3549844      0.48721486    -3.1061252      2.0322225     -1.0739027      16000        
     36000   1.3506167      0.49415332    -3.1026865      2.0256719     -1.0770146      16000        
     37000   1.349375       0.48864929    -3.1057065      2.0238095     -1.081897       16000        
     38000   1.3576974      0.48060627    -3.1215377      2.0362915     -1.0852462      16000        
     39000   1.3485716      0.51442423    -3.1120953      2.0226045     -1.0894907      16000        
     40000   1.3488705      0.46271135    -3.1150324      2.0230528     -1.0919796      16000        
     41000   1.3562652      0.45437214    -3.1312309      2.0341436     -1.0970874      16000        
     42000   1.3431774      0.5149302     -3.1147372      2.0145142     -1.100223       16000        
     43000   1.3429033      0.46664723    -3.1181634      2.0141031     -1.1040603      16000        
     44000   1.3346274      0.46623508    -3.1085177      2.0016909     -1.1068268      16000        
     45000   1.3374252      0.47904408    -3.1165173      2.005887      -1.1106303      16000        
     46000   1.3391196      0.4653522     -3.12269        2.0084283     -1.1142617      16000        
     47000   1.3312652      0.49290444    -3.1142141      1.9966481     -1.1175659      16000        
     48000   1.3289378      0.45026445    -3.1142357      1.9931575     -1.1210782      16000        
     49000   1.31879        0.4963469     -3.1025866      1.9779377     -1.1246489      16000        
     50000   1.3279958      0.43799845    -3.120041       1.9917446     -1.1282963      16000        
     51000   1.3193577      0.47264728    -3.1100559      1.9787892     -1.1312667      16000        
     52000   1.3316457      0.48019245    -3.132683       1.9972189     -1.1354641      16000        
     53000   1.326269       0.44844558    -3.1282841      1.9891548     -1.1391293      16000        
     54000   1.3229855      0.45220983    -3.1266159      1.9842301     -1.1423857      16000        
     55000   1.3264139      0.381512      -3.1350568      1.9893722     -1.1456846      16000        
     56000   1.3210159      0.44364384    -3.1307276      1.9812762     -1.1494514      16000        
     57000   1.3257098      0.40454787    -3.1401315      1.9883161     -1.1518154      16000        
     58000   1.3091485      0.47341354    -3.1192027      1.9634773     -1.1557253      16000        
     59000   1.3231396      0.40923086    -3.1437886      1.9844614     -1.1593273      16000        
     60000   1.3169872      0.41694549    -3.1374555      1.9752338     -1.1622217      16000        
     61000   1.3141756      0.39976863    -3.13655        1.971017      -1.165533       16000        
     62000   1.3071699      0.41315926    -3.1296032      1.9605097     -1.1690935      16000        
     63000   1.3027757      0.41565383    -3.1265447      1.9539192     -1.1726255      16000        
     64000   1.3049465      0.42849313    -3.1327118      1.9571751     -1.1755367      16000        
     65000   1.2975917      0.42660576    -3.1247661      1.9461443     -1.1786218      16000        
     66000   1.3034392      0.44105949    -3.1373375      1.9549143     -1.1824231      16000        
     67000   1.2901184      0.43216678    -3.1204014      1.9349357     -1.1854657      16000        
     68000   1.2986681      0.40202686    -3.1365676      1.9477586     -1.188809       16000        
     69000   1.3029327      0.40333473    -3.1460373      1.9541547     -1.1918826      16000        
     70000   1.2952122      0.38046995    -3.1372662      1.9425754     -1.1946908      16000        
     71000   1.2967304      0.39058323    -3.1430021      1.9448525     -1.1981496      16000        
     72000   1.2965078      0.41011489    -3.145936       1.9445186     -1.2014174      16000        
     73000   1.3017943      0.40050869    -3.1569397      1.9524474     -1.2044923      16000        
     74000   1.2790329      0.44370937    -3.12541        1.9183095     -1.2071005      16000        
     75000   1.2808672      0.38772363    -3.1310833      1.9210606     -1.2100227      16000        
     76000   1.2925493      0.38958177    -3.1520037      1.9385816     -1.2134221      16000        
     77000   1.3009809      0.32737095    -3.167659       1.9512274     -1.2164316      16000        
     78000   1.2896525      0.38868414    -3.1539672      1.934237      -1.2197302      16000        
     79000   1.2810301      0.3506286     -3.1438394      1.921305      -1.2225344      16000        
     80000   1.2821637      0.38895108    -3.1487599      1.9230052     -1.2257547      16000        
     81000   1.2745093      0.41418676    -3.1403986      1.9115249     -1.2288737      16000        
     82000   1.2794221      0.39262427    -3.1508014      1.9188932     -1.2319081      16000        
     83000   1.2784027      0.38090534    -3.1522151      1.9173643     -1.2348508      16000        
     84000   1.274394       0.38161439    -3.1486041      1.911352      -1.237252       16000        
     85000   1.2691631      0.41686773    -3.1436491      1.9035066     -1.2401424      16000        
     86000   1.2704604      0.38431665    -3.1489928      1.9054524     -1.2435404      16000        
     87000   1.2603246      0.4044796     -3.1361313      1.8902506     -1.2458807      16000        
     88000   1.2701958      0.3547656     -3.1546115      1.9050555     -1.249556       16000        
     89000   1.2662831      0.39213042    -3.1512928      1.8991872     -1.2521055      16000        
     90000   1.259778       0.37046211    -3.1438399      1.8894308     -1.2544091      16000        
     91000   1.2639172      0.39394292    -3.1533849      1.8956388     -1.2577461      16000        
     92000   1.2594514      0.37140571    -3.1495917      1.888941      -1.2606507      16000        
     93000   1.2591181      0.31998864    -3.1520002      1.8884411     -1.2635591      16000        
     94000   1.2645073      0.34280412    -3.1629251      1.8965238     -1.2664013      16000        
     95000   1.2631004      0.34290242    -3.1635067      1.8944137     -1.269093       16000        
     96000   1.2470734      0.38616272    -3.1419145      1.8703763     -1.2715382      16000        
     97000   1.257903       0.34831505    -3.1616646      1.8866186     -1.275046       16000        
     98000   1.2526534      0.32255206    -3.1558094      1.8787452     -1.2770642      16000        
     99000   1.2512631      0.35461047    -3.1567198      1.87666       -1.2800598      16000        
    100000   1.2508715      0.31645899    -3.1590999      1.8760727     -1.2830272      16000        
    101000   1.2500308      0.26615164    -3.1600852      1.8748118     -1.2852735      16000        
    102000   1.2488174      0.36882328    -3.1621141      1.872992      -1.2891221      16000        
    103000   1.260611       0.29437593    -3.1823935      1.8906801     -1.2917134      16000        
    104000   1.2413828      0.37640471    -3.1561305      1.8618414     -1.294289       16000        
    105000   1.2495037      0.30111722    -3.1707497      1.8740213     -1.2967284      16000        
    106000   1.2449464      0.31687917    -3.1668272      1.8671862     -1.299641       16000        
    107000   1.2501632      0.29845483    -3.1775275      1.8750103     -1.3025171      16000        
    108000   1.2460566      0.32748285    -3.1742636      1.8688513     -1.3054123      16000        
    109000   1.2479562      0.26676272    -3.1788183      1.8717003     -1.307118       16000        
    110000   1.2316125      0.36122987    -3.1575049      1.8471878     -1.3103171      16000        
    111000   1.2359689      0.29260054    -3.1656841      1.8537216     -1.3119626      16000        
    112000   1.2311447      0.3539219     -3.1622452      1.8464862     -1.315759       16000        
    113000   1.2358263      0.33670466    -3.1725261      1.8535078     -1.3190183      16000        
    114000   1.2315042      0.30974747    -3.1667809      1.8470253     -1.3197556      16000        
    115000   1.2279019      0.31124242    -3.1646246      1.8416226     -1.323002       16000        
    116000   1.2277987      0.34079246    -3.1667518      1.8414678     -1.325284       16000        
    117000   1.2364873      0.2663612     -3.182601       1.854499      -1.328102       16000        
    118000   1.2282803      0.36062952    -3.173072       1.8421901     -1.3308819      16000        
    119000   1.2154344      0.33927191    -3.156022       1.8229237     -1.3330983      16000        
    120000   1.2177492      0.31643531    -3.161976       1.8263954     -1.3355806      16000        
    121000   1.2151977      0.33247669    -3.1613219      1.8225687     -1.3387532      16000        
    122000   1.2240815      0.31083718    -3.1773288      1.8358928     -1.341436       16000        
    123000   1.2155122      0.2844237     -3.165591       1.8230403     -1.3425507      16000        
    124000   1.2246645      0.30495042    -3.1828599      1.8367671     -1.3460928      16000        
    125000   1.2185058      0.25200567    -3.1753197      1.8275302     -1.3477894      16000        
    126000   1.2252584      0.27200372    -3.1895476      1.8376579     -1.3518897      16000        
    127000   1.2235577      0.3017312     -3.1884309      1.8351072     -1.3533237      16000        
    128000   1.2122761      0.28612352    -3.1744358      1.8181868     -1.356249       16000        
    129000   1.2110469      0.32397057    -3.1742446      1.8163433     -1.3579013      16000        
    130000   1.2278565      0.28239501    -3.2027006      1.8415546     -1.361146       16000        
    131000   1.2101887      0.28979501    -3.1781278      1.8150561     -1.3630716      16000        
    132000   1.2055826      0.30806768    -3.1733876      1.8081479     -1.3652397      16000        
    133000   1.2073225      0.29330358    -3.1783533      1.8107574     -1.3675959      16000        
    134000   1.2128327      0.30208605    -3.1888397      1.8190216     -1.369818       16000        
    135000   1.2023082      0.30547357    -3.1754528      1.8032368     -1.372216       16000        
    136000   1.2089168      0.31443331    -3.1882992      1.8131486     -1.3751506      16000        
    137000   1.1944996      0.29072705    -3.1684723      1.7915254     -1.3769469      16000        
    138000   1.1967192      0.32192349    -3.174352       1.7948545     -1.3794975      16000        
    139000   1.2064121      0.23377596    -3.1911005      1.809392      -1.3817086      16000        
    140000   1.1985693      0.27408077    -3.1812652      1.7976292     -1.383636       16000        
    141000   1.193433       0.31523224    -3.1765438      1.7899257     -1.3866181      16000        
    142000   1.1963401      0.2877073     -3.1833444      1.7942858     -1.3890586      16000        
    143000   1.199405       0.2858847     -3.1900892      1.7988827     -1.3912065      16000        
    144000   1.1955048      0.27837556    -3.1869936      1.7930331     -1.3939605      16000        
    145000   1.1853172      0.29599323    -3.1732276      1.7777536     -1.395474       16000        
    146000   1.1932091      0.27043207    -3.187779       1.78959       -1.3981891      16000        
    147000   1.1899897      0.29900314    -3.1850251      1.7847614     -1.4002636      16000        
    148000   1.1913727      0.31288552    -3.1899569      1.7868357     -1.4031212      16000        
    149000   1.1850233      0.31956756    -3.182808       1.7773128     -1.4054952      16000        
    150000   1.1835099      0.25765286    -3.1813144      1.7750429     -1.4062716      16000        
    151000   1.1927705      0.29670026    -3.1987829      1.7889322     -1.4098507      16000        
    152000   1.1834761      0.25809571    -3.1858273      1.7749923     -1.4108351      16000        
    153000   1.187198       0.23453568    -3.1941773      1.7805744     -1.4136029      16000        
    154000   1.1984657      0.2992966     -3.2143914      1.7974738     -1.4169175      16000        
    155000   1.1937796      0.23807834    -3.2086165      1.7904456     -1.4181709      16000        
    156000   1.1753511      0.26696929    -3.1824965      1.7628063     -1.4196902      16000        
    157000   1.1874983      0.22958411    -3.203484       1.7810248     -1.4224592      16000        
    158000   1.1849617      0.26145751    -3.2026787      1.7772203     -1.4254584      16000        
    159000   1.1764503      0.25144445    -3.1911934      1.7644549     -1.4267386      16000        
    160000   1.176645       0.24877914    -3.1940908      1.7647469     -1.4293439      16000        
    161000   1.1880391      0.21902832    -3.2132722      1.7818359     -1.4314363      16000        
    162000   1.1784795      0.24350999    -3.2016205      1.7674983     -1.4341221      16000        
    163000   1.1746713      0.22869846    -3.197704       1.7617867     -1.4359174      16000        
    164000   1.1862233      0.21728688    -3.2176184      1.7791125     -1.4385059      16000        
    165000   1.1807531      0.18728499    -3.210536       1.7709083     -1.4396278      16000        
    166000   1.1721578      0.2570478     -3.2003814      1.758017      -1.4423644      16000        
    167000   1.1831081      0.26221137    -3.219608       1.7744403     -1.4451677      16000        
    168000   1.1744566      0.2721061     -3.2089836      1.7614646     -1.4475189      16000        
    169000   1.1701359      0.22992418    -3.2032121      1.7549844     -1.4482277      16000        
    170000   1.1699597      0.30445867    -3.2058987      1.7547202     -1.4511785      16000        
    171000   1.1658957      0.28055727    -3.2018825      1.748625      -1.4532575      16000        
    172000   1.1693267      0.22551457    -3.2084698      1.7537709     -1.4546989      16000        
    173000   1.160223       0.21281779    -3.1966687      1.7401169     -1.4565517      16000        
    174000   1.1633269      0.26383122    -3.2042253      1.7447722     -1.4594531      16000        
    175000   1.1599686      0.19933127    -3.2002625      1.7397354     -1.4605271      16000        
    176000   1.1651897      0.22374471    -3.2104899      1.747566      -1.4629239      16000        
    177000   1.160895       0.30635902    -3.2070297      1.7411248     -1.4659049      16000        
    178000   1.1699539      0.19002295    -3.2223065      1.7547115     -1.4675951      16000        
    179000   1.164028       0.20248184    -3.2150075      1.7458237     -1.4691838      16000        
    180000   1.1555767      0.21884915    -3.2043438      1.7331484     -1.4711953      16000        
    181000   1.1662692      0.23429748    -3.2233474      1.7491851     -1.4741623      16000        
    182000   1.1638351      0.15453943    -3.2210208      1.7455344     -1.4754864      16000        
    183000   1.1582619      0.25478225    -3.2153285      1.7371756     -1.4781529      16000        
    184000   1.1557836      0.23114493    -3.2128409      1.7334587     -1.4793822      16000        
    185000   1.1553251      0.20116134    -3.213884       1.7327711     -1.4811129      16000        
    186000   1.1458356      0.22017567    -3.2009503      1.7185385     -1.4824118      16000        
    187000   1.147129       0.2383808     -3.2062618      1.7204784     -1.4857834      16000        
    188000   1.1461472      0.22034467    -3.2064845      1.7190059     -1.4874786      16000        
    189000   1.1523649      0.2086199     -3.2171109      1.7283313     -1.4887796      16000        
    190000   1.1565415      0.21355641    -3.226114       1.7345955     -1.4915185      16000        
    191000   1.1397286      0.26063041    -3.2025294      1.7093792     -1.4931502      16000        
    192000   1.1502643      0.22078078    -3.2205843      1.7251808     -1.4954035      16000        
    193000   1.1459111      0.23381112    -3.2163579      1.7186519     -1.497706       16000        
    194000   1.1435019      0.2081841     -3.2135609      1.7150384     -1.4985225      16000        
    195000   1.1413188      0.19108131    -3.2126406      1.7117642     -1.5008764      16000        
    196000   1.1485573      0.20305975    -3.2259142      1.7226206     -1.5032936      16000        
    197000   1.1436962      0.19937829    -3.2202568      1.7153299     -1.5049269      16000        
    198000   1.1468192      0.23249734    -3.2271466      1.7200137     -1.5071329      16000        
    199000   1.1320184      0.18807983    -3.2060821      1.6978154     -1.5082668      16000        
    200000   1.1509925      0.15472053    -3.2369426      1.726273      -1.5106696      16000        
    201000   1.1543501      0.15378604    -3.2443261      1.7313087     -1.5130173      16000        
    202000   1.1361624      0.23888212    -3.2182588      1.7040306     -1.5142282      16000        
    203000   1.1358339      0.18373353    -3.2194359      1.7035378     -1.5158981      16000        
    204000   1.1481494      0.1551978     -3.240407       1.7220088     -1.5183982      16000        
    205000   1.1411185      0.14999087    -3.2313402      1.7114637     -1.5198765      16000        
    206000   1.1347871      0.20815899    -3.2237962      1.7019679     -1.5218283      16000        
    207000   1.1375597      0.18200154    -3.2291359      1.7061262     -1.5230097      16000        
    208000   1.1372112      0.19867403    -3.2309521      1.7056036     -1.5253485      16000        
    209000   1.1335985      0.18461567    -3.2273924      1.7001852     -1.5272072      16000        
    210000   1.1249998      0.21065029    -3.2158659      1.6872887     -1.5285772      16000        
    211000   1.1448636      0.13931061    -3.2484117      1.7170807     -1.531331       16000        
    212000   1.1304668      0.20793372    -3.2284733      1.6954882     -1.5329851      16000        
    213000   1.1211418      0.20813763    -3.2162036      1.6815025     -1.5347011      16000        
    214000   1.1313326      0.18317455    -3.2328391      1.6967868     -1.5360523      16000        
    215000   1.1293033      0.20683577    -3.2315169      1.6937432     -1.5377737      16000        
    216000   1.1343882      0.14403694    -3.2412233      1.7013696     -1.5398538      16000        
    217000   1.1353536      0.16610446    -3.244879       1.7028175     -1.5420615      16000        
    218000   1.1260058      0.18581142    -3.2324225      1.6887976     -1.543625       16000        
    219000   1.1325736      0.17482739    -3.2448341      1.6986481     -1.546186       16000        
    220000   1.1233008      0.19283769    -3.2320248      1.6847406     -1.5472842      16000        
    221000   1.1346373      0.16236056    -3.2516266      1.7017432     -1.5498835      16000        
    222000   1.1200185      0.23121649    -3.2306414      1.6798178     -1.5508236      16000        
    223000   1.1272958      0.15239391    -3.2437204      1.6907323     -1.5529881      16000        
    224000   1.1285582      0.15249588    -3.2463623      1.6926257     -1.5537366      16000        
    225000   1.1272156      0.15344443    -3.2476535      1.690612      -1.5570415      16000        
    226000   1.1224783      0.16228904    -3.2416682      1.6835069     -1.5581612      16000        
    227000   1.1238728      0.13332528    -3.2450569      1.6855985     -1.5594585      16000        
    228000   1.1178009      0.14213877    -3.2371466      1.6764918     -1.5606548      16000        
    229000   1.1183459      0.14639703    -3.2401669      1.6773092     -1.5628577      16000        
    230000   1.1106795      0.16965291    -3.2297203      1.6658111     -1.5639092      16000        
    231000   1.1191646      0.15290963    -3.2451022      1.6785371     -1.5665651      16000        
    232000   1.1103527      0.15857233    -3.2328161      1.6653208     -1.5674953      16000        
    233000   1.1154339      0.1665812     -3.2430026      1.6729418     -1.5700609      16000        
    234000   1.1145563      0.17230931    -3.2436236      1.6716254     -1.5719981      16000        
    235000   1.1101927      0.16692297    -3.2375566      1.6650809     -1.5724757      16000        
    236000   1.1258094      0.17621022    -3.2646834      1.688503      -1.5761804      16000        
    237000   1.1151487      0.15534268    -3.2491878      1.6725139     -1.5766739      16000        
    238000   1.1055321      0.18092292    -3.2366692      1.6580909     -1.5785783      16000        
    239000   1.1161238      0.15968872    -3.2540559      1.6739764     -1.5800795      16000        
    240000   1.1083144      0.16090748    -3.2438808      1.6622638     -1.581617       16000        
    241000   1.1197803      0.14913873    -3.2631764      1.6794604     -1.5837159      16000        
    242000   1.0968334      0.15596283    -3.2293563      1.6450445     -1.5843118      16000        
    243000   1.1053821      0.15685603    -3.2442514      1.6578658     -1.5863856      16000        
    244000   1.1151885      0.15528388    -3.2617242      1.6725736     -1.5891506      16000        
    245000   1.1134212      0.1584225     -3.2610564      1.6699231     -1.5911333      16000        
    246000   1.101122       0.17147768    -3.2433266      1.6514765     -1.5918501      16000        
    247000   1.1046702      0.1239624     -3.2502836      1.6567982     -1.5934854      16000        
    248000   1.1101977      0.10991914    -3.260767       1.6650883     -1.5956786      16000        
    249000   1.1079817      0.10580053    -3.2584351      1.6617647     -1.5966703      16000        
    250000   1.1085842      0.2031712     -3.2622812      1.6626685     -1.5996127      16000        
    251000   1.1158158      0.12422557    -3.2736948      1.6735144     -1.6001804      16000        
    252000   1.102553       0.11409432    -3.2550606      1.6536228     -1.6014378      16000        
    253000   1.110431       0.12119347    -3.2688444      1.6654383     -1.6034061      16000        
    254000   1.1100456      0.081010131   -3.2690447      1.6648603     -1.6041844      16000        
    255000   1.0986993      0.099244002   -3.2530061      1.6478429     -1.6051631      16000        
    256000   1.1011664      0.1103808     -3.2595966      1.6515432     -1.6080534      16000        
    257000   1.0921278      0.14801525    -3.246977       1.637987      -1.60899        16000        
    258000   1.1005908      0.13293265    -3.2617151      1.6506798     -1.6110353      16000        
    259000   1.0984466      0.16005465    -3.2605746      1.6474639     -1.6131107      16000        
    260000   1.0960806      0.16818304    -3.2588525      1.6439154     -1.6149371      16000        
    261000   1.0945184      0.14589658    -3.2576417      1.6415723     -1.6160694      16000        
    262000   1.1007316      0.17582987    -3.2689272      1.650891      -1.6180362      16000        
    263000   1.09125        0.14506437    -3.2557774      1.6366703     -1.6191071      16000        
    264000   1.0921576      0.16385507    -3.2592684      1.6380316     -1.6212367      16000        
    265000   1.095342       0.11189321    -3.2654698      1.6428076     -1.6226621      16000        
    266000   1.0890334      0.12079772    -3.2565313      1.6333459     -1.6231853      16000        
    267000   1.0903976      0.11102661    -3.2611403      1.6353919     -1.6257484      16000        
    268000   1.0825049      0.17194722    -3.2502073      1.6235544     -1.6266529      16000        
    269000   1.0926345      0.15673363    -3.2679051      1.6387469     -1.6291582      16000        
    270000   1.090013       0.08212387    -3.2647399      1.6348151     -1.6299248      16000        
    271000   1.1020951      0.13165844    -3.2861384      1.6529359     -1.6332025      16000        
    272000   1.0889914      0.12683301    -3.2659775      1.6332829     -1.6326946      16000        
    273000   1.071646       0.14773389    -3.2413743      1.6072681     -1.6341062      16000        
    274000   1.0858742      0.11027643    -3.2637567      1.6286077     -1.635149       16000        
    275000   1.0830125      0.13397434    -3.2616991      1.6243156     -1.6373834      16000        
    276000   1.0843863      0.094897977   -3.2647327      1.6263761     -1.6383566      16000        
    277000   1.0893725      0.12585452    -3.2752667      1.6338545     -1.6414122      16000        
    278000   1.0832421      0.1098923     -3.2663863      1.6246601     -1.6417263      16000        
    279000   1.0911025      0.10381066    -3.2802276      1.6364491     -1.6437785      16000        
    280000   1.0892164      0.086251669   -3.278055       1.6336203     -1.6444347      16000        
    281000   1.0765405      0.10064865    -3.2607872      1.6146089     -1.6461783      16000        
    282000   1.0755592      0.12774916    -3.2611419      1.6131371     -1.6480048      16000        
    283000   1.0838168      0.15242381    -3.2764839      1.625522      -1.6509619      16000        
    284000   1.0853641      0.098938715   -3.27941        1.6278427     -1.6515673      16000        
    285000   1.0810572      0.11431647    -3.2739047      1.6213831     -1.6525217      16000        
    286000   1.0692335      0.12811402    -3.2577651      1.6036498     -1.6541154      16000        
    287000   1.0754966      0.10304722    -3.2687554      1.6130432     -1.6557122      16000        
    288000   1.0822014      0.11771704    -3.2807565      1.6230991     -1.6576574      16000        
    289000   1.0789305      0.10763269    -3.2772297      1.6181934     -1.6590362      16000        
    290000   1.0763233      0.15427059    -3.27452        1.6142831     -1.6602369      16000        
    291000   1.0761033      0.12010783    -3.2763694      1.6139532     -1.6624162      16000        
    292000   1.0809578      0.078229606   -3.2847494      1.621234      -1.6635154      16000        
    293000   1.0663955      0.13310273    -3.2642626      1.5993933     -1.6648693      16000        
    294000   1.081095       0.14196581    -3.2880096      1.6214397     -1.6665699      16000        
    295000   1.0728169      0.10976217    -3.2765005      1.6090242     -1.6674762      16000        
    296000   1.0726303      0.088924444   -3.2764708      1.6087443     -1.6677265      16000        
    297000   1.0691699      0.15988378    -3.274197       1.6035543     -1.6706427      16000        
    298000   1.0731977      0.11841252    -3.2816063      1.6095953     -1.672011       16000        
    299000   1.0780772      0.11446764    -3.2899154      1.6169137     -1.6730017      16000        
    300000   1.0627593      0.11526022    -3.2678437      1.5939397     -1.673904       16000        
    301000   1.0733116      0.1531584     -3.286136       1.6097662     -1.6763698      16000        
    302000   1.0596879      0.11502435    -3.2657246      1.5893332     -1.6763914      16000        
    303000   1.0671747      0.1267168     -3.2795766      1.600562      -1.6790146      16000        
    304000   1.0665656      0.11577225    -3.2799372      1.5996484     -1.6802888      16000        
    305000   1.0632956      0.11370862    -3.2768141      1.594744      -1.6820701      16000        
    306000   1.0816195      0.082624472   -3.3060851      1.6222265     -1.6838585      16000        
    307000   1.0650834      0.10176525    -3.2824253      1.5974255     -1.6849999      16000        
    308000   1.0684248      0.10191688    -3.2890223      1.6024369     -1.6865854      16000        
    309000   1.081445       0.068522311   -3.3101737      1.6219647     -1.688209       16000        
    310000   1.0637961      0.087501719   -3.2842729      1.5954946     -1.6887783      16000        
    311000   1.0647611      0.10820459    -3.2870127      1.5969421     -1.6900707      16000        
    312000   1.0740701      0.10577528    -3.3028367      1.6109037     -1.691933       16000        
    313000   1.062461       0.11882241    -3.2867358      1.5934923     -1.6932436      16000        
    314000   1.0608067      0.13744367    -3.2852723      1.5910112     -1.694261       16000        
    315000   1.0621511      0.10411205    -3.2888535      1.5930274     -1.6958261      16000        
    316000   1.0595038      0.10971525    -3.2855538      1.5890571     -1.6964967      16000        
    317000   1.0645506      0.088670781   -3.2958047      1.5966263     -1.6991784      16000        
    318000   1.0576489      0.11595848    -3.2860093      1.5862751     -1.6997342      16000        
    319000   1.0530137      0.097711111   -3.2797696      1.5793231     -1.7004465      16000        
    320000   1.0578761      0.10330282    -3.2891242      1.5866158     -1.7025084      16000        
    321000   1.0575356      0.11357154    -3.2904513      1.5861051     -1.7043462      16000        
    322000   1.0469788      0.056715733   -3.273505       1.5702718     -1.7032331      16000        
    323000   1.0515775      0.043471013   -3.2832177      1.577169      -1.7060486      16000        
    324000   1.049024       0.14009553    -3.2811304      1.5733393     -1.7077911      16000        
    325000   1.0578151      0.1224443     -3.2964345      1.5865243     -1.7099102      16000        
    326000   1.0597017      0.068229406   -3.2998642      1.5893538     -1.7105104      16000        
    327000   1.0505747      0.093239074   -3.2874685      1.5756651     -1.7118034      16000        
    328000   1.0566595      0.097144894   -3.2990193      1.5847911     -1.7142282      16000        
    329000   1.0618187      0.072092559   -3.3081346      1.592529      -1.7156056      16000        
    330000   1.0532642      0.062198158   -3.2954097      1.5796988     -1.715711       16000        
    331000   1.0569554      0.087704757   -3.303586       1.5852349     -1.7183512      16000        
    332000   1.052061       0.073075559   -3.296898       1.5778942     -1.7190037      16000        
    333000   1.0482121      0.08629817    -3.2928909      1.5721217     -1.7207692      16000        
    334000   1.0519321      0.09612489    -3.2999499      1.5777009     -1.722249       16000        
    335000   1.0474735      0.092904164   -3.2935237      1.5710138     -1.7225099      16000        
    336000   1.0450488      0.087902724   -3.2924188      1.5673773     -1.7250416      16000        
    337000   1.0578777      0.050075003   -3.3128155      1.5866181     -1.7261974      16000        
    338000   1.0442633      0.07433741    -3.2929746      1.5661991     -1.7267755      16000        
    339000   1.0586866      0.063589127   -3.3166505      1.5878315     -1.7288191      16000        
    340000   1.0609758      0.094558147   -3.321397       1.5912647     -1.7301323      16000        
    341000   1.0461793      0.081218712   -3.299856       1.5690728     -1.7307832      16000        
    342000   1.0511638      0.068538995   -3.3092204      1.5765486     -1.7326718      16000        
    343000   1.0487503      0.076354468   -3.306854       1.5729288     -1.7339252      16000        
    344000   1.0511281      0.054629288   -3.3113066      1.576495      -1.7348116      16000        
    345000   1.0459623      0.1274446     -3.3046738      1.5687473     -1.7359265      16000        
    346000   1.0494506      0.098233018   -3.3113121      1.5739792     -1.7373329      16000        
    347000   1.0329054      0.058347561   -3.2867045      1.5491645     -1.7375401      16000        
    348000   1.0402633      0.051035665   -3.2997225      1.5601999     -1.7395226      16000        
    349000   1.0459699      0.058680844   -3.3099191      1.5687587     -1.7411604      16000        
    350000   1.0470925      0.087956907   -3.3133969      1.5704424     -1.7429545      16000        
    351000   1.0411119      0.072361442   -3.3054062      1.5614726     -1.7439336      16000        
    352000   1.0289222      0.024782114   -3.2862304      1.5431903     -1.74304        16000        
    353000   1.0354192      0.038128433   -3.2978766      1.5529347     -1.7449419      16000        
    354000   1.0358371      0.053597474   -3.3006448      1.5535614     -1.7470834      16000        
    355000   1.0319121      0.087677429   -3.2962778      1.5476747     -1.7486031      16000        
    356000   1.0536668      0.074736311   -3.3319315      1.5803026     -1.751629       16000        
    357000   1.0428565      0.064678871   -3.3163292      1.5640892     -1.75224        16000        
    358000   1.0359309      0.032091267   -3.3057965      1.5537021     -1.7520943      16000        
    359000   1.0412805      0.017050036   -3.3146702      1.5617255     -1.7529447      16000        
    360000   1.0350183      0.086797772   -3.30726        1.5523333     -1.7549267      16000        
    361000   1.0306488      0.085354341   -3.3019212      1.54578       -1.7561412      16000        
    362000   1.0431189      0.075805926   -3.3228803      1.5644827     -1.7583976      16000        
    363000   1.0407807      0.053040319   -3.3198087      1.560976      -1.7588328      16000        
    364000   1.0359709      0.068096006   -3.3141772      1.553762      -1.7604152      16000        
    365000   1.0271985      0.053912343   -3.3007703      1.5406051     -1.7601652      16000        
    366000   1.0346327      0.031910409   -3.3128981      1.5517551     -1.761143       16000        
    367000   1.0266368      0.064098298   -3.3014189      1.5397626     -1.7616563      16000        
    368000   1.0363398      0.033013151   -3.3197923      1.5543154     -1.7654769      16000        
    369000   1.0315802      0.075097739   -3.313534       1.5471769     -1.7663571      16000        
    370000   1.0325949      0.027129157   -3.3158865      1.5486988     -1.7671878      16000        
    371000   1.0410905      0.042227647   -3.3297699      1.5614405     -1.7683294      16000        
    372000   1.025086       0.062516653   -3.3063726      1.5374368     -1.7689358      16000        
    373000   1.0314614      0.032086209   -3.3182607      1.5469987     -1.771262       16000        
    374000   1.0363212      0.076935797   -3.3271386      1.5542875     -1.7728511      16000        
    375000   1.0373795      0.012172495   -3.3294399      1.5558747     -1.7735652      16000        
    376000   1.0361446      0.075839399   -3.3293516      1.5540227     -1.7753289      16000        
    377000   1.0246278      0.034872575   -3.311999       1.5367496     -1.7752494      16000        
    378000   1.0464571      0.043237441   -3.3480375      1.5694894     -1.7785481      16000        
    379000   1.0286867      0.052805145   -3.3214925      1.5428371     -1.7786554      16000        
    380000   1.0397674     -0.036149713   -3.3395266      1.5594561     -1.7800706      16000        
    381000   1.0267795      0.088722158   -3.3203206      1.5399768     -1.7803438      16000        
    382000   1.0342915      0.00064595215 -3.3327247      1.5512433     -1.7814814      16000        
    383000   1.0427052      0.030019241   -3.3478414      1.5638623     -1.7839791      16000        
    384000   1.0196678      0.054085188   -3.3127451      1.5293106     -1.7834346      16000        
    385000   1.0175389      0.030542474   -3.3104385      1.5261176     -1.7843209      16000        
    386000   1.0221958      0.10757921    -3.3194779      1.533102      -1.7863759      16000        
    387000   1.0285815      0.042727288   -3.3309644      1.5426794     -1.788285       16000        
    388000   1.024753       0.067399685   -3.325207       1.5369374     -1.7882696      16000        
    389000   1.0336802      0.031855799   -3.3410265      1.5503264     -1.7907001      16000        
    390000   1.0265212      0.033052365   -3.3309053      1.5395894     -1.7913159      16000        
    391000   1.0189312      0.065447307   -3.3206377      1.5282057     -1.792432       16000        
    392000   1.0310428      0.061831196   -3.3406475      1.5463708     -1.7942767      16000        
    393000   1.0221876      0.096884753   -3.3281469      1.5330897     -1.7950572      16000        
    394000   1.0280862      0.075120401   -3.3387875      1.5419365     -1.796851       16000        
    395000   1.0231606      0.035828063   -3.3320673      1.5345491     -1.7975182      16000        
    396000   1.0250338      0.072445668   -3.3369243      1.5373585     -1.7995659      16000        
    397000   1.0261383      0.051416536   -3.3395666      1.539015      -1.8005516      16000        
    398000   1.0257604      0.049065158   -3.3396574      1.5384483     -1.8012091      16000        
    399000   1.0293278      0.091803454   -3.3469537      1.5437987     -1.803155       16000        
    400000   1.028042       0.045906866   -3.3459497      1.5418702     -1.8040794      16000        
    401000   1.0219598      0.058663399   -3.3372747      1.5327481     -1.8045265      16000        
    402000   1.0190413      0.020421762   -3.3334587      1.5283709     -1.8050878      16000        
    403000   1.0154767      0.011432086   -3.3286151      1.5230247     -1.8055905      16000        
    404000   1.0163175      0.08689469    -3.3327606      1.5242857     -1.8084748      16000        
    405000   1.0211707      0.031116317   -3.3404447      1.5315645     -1.8088802      16000        
    406000   1.0205182      0.068477274   -3.3419116      1.530586      -1.8113256      16000        
    407000   1.0183222      0.023151538   -3.3381727      1.5272924     -1.8108803      16000        
    408000   1.0133629     -0.002677552   -3.332205       1.5198543     -1.8123508      16000        
    409000   1.0215852      0.01233819    -3.3458394      1.5321863     -1.8136531      16000        
    410000   1.0171101      0.087262497   -3.3411287      1.5254745     -1.8156542      16000        
    411000   1.0075317      0.04467887    -3.3269318      1.5111086     -1.8158232      16000        
    412000   1.0143028      0.057484638   -3.3388044      1.5212641     -1.8175403      16000        
    413000   1.0167036      0.0086617091  -3.3439578      1.5248648     -1.819093       16000        
    414000   1.0075546      0.092525999   -3.3308448      1.511143      -1.8197018      16000        
    415000   1.0279784      0.017528473   -3.3634792      1.5417749     -1.8217043      16000        
    416000   1.0042403      0.095833702   -3.3283507      1.5061722     -1.8221785      16000        
    417000   1.0048128      0.070245043   -3.3299893      1.5070308     -1.8229585      16000        
    418000   1.0092225      0.039505535   -3.3371391      1.5136445     -1.8234946      16000        
    419000   1.010606      -0.028332004   -3.3395255      1.5157195     -1.8238059      16000        
    420000   1.012276       0.0023172419  -3.3442387      1.5182243     -1.8260145      16000        
    421000   1.0177099      0.072907638   -3.3556533      1.526374      -1.8292792      16000        
    422000   1.0111084      0.010793753   -3.3454333      1.5164731     -1.8289603      16000        
    423000   1.0189143      0.088820506   -3.3589673      1.5281805     -1.8307869      16000        
    424000   1.0172569      0.046637183   -3.3567431      1.5256946     -1.8310485      16000        
    425000   1.0189388      0.082019329   -3.3617264      1.5282172     -1.8335092      16000        
    426000   1.01919        0.06816536    -3.3632177      1.5285938     -1.8346238      16000        
    427000   1.0174795      0.033413101   -3.3611138      1.5260285     -1.8350854      16000        
    428000   1.0043256      0.03755115    -3.3413489      1.5063001     -1.8350488      16000        
    429000   1.0091355      0.0084307205  -3.3494188      1.513514      -1.8359048      16000        
    430000   1.0106823      0.072483715   -3.353826       1.515834      -1.837992       16000        
    431000   1.0008653      0.029311057   -3.3393685      1.5011102     -1.8382582      16000        
    432000   1.0174645      0.084355588   -3.3676703      1.526006      -1.8416643      16000        
    433000   1.0127319      0.067518369   -3.3611796      1.5189079     -1.8422716      16000        
    434000   1.0207747      0.028572065   -3.3750606      1.5309706     -1.8440899      16000        
    435000   1.0199708      0.056409962   -3.3754037      1.5297649     -1.8456389      16000        
    436000   1.0202446      0.015915671   -3.3759114      1.5301756     -1.8457358      16000        
    437000   1.011624       0.0045513766  -3.3625408      1.5172463     -1.8452946      16000        
    438000   1.0095932      0.049426611   -3.362389       1.5142006     -1.8481885      16000        
    439000   1.0026093      0.052496293   -3.3515798      1.503726      -1.8478539      16000        
    440000   1.0056818      0.03657634    -3.3563577      1.5083342     -1.8480235      16000        
    441000   1.0099578      0.037424116   -3.3662472      1.5147473     -1.8514999      16000        
    442000   1.0182531      0.044848371   -3.3796426      1.5271887     -1.8524538      16000        
    443000   1.010783       0.040180743   -3.3684215      1.515985      -1.8524365      16000        
    444000   1.0097826      0.033701324   -3.3683166      1.5144845     -1.8538321      16000        
    445000   1.0147237      0.066127067   -3.3779166      1.5218952     -1.8560213      16000        
    446000   1.0017061     -0.019603483   -3.3567522      1.5023713     -1.8543809      16000        
    447000   0.99602607     0.0022270224  -3.3495135      1.4938524     -1.8556611      16000        
    448000   1.0004966      0.07786938    -3.3587719      1.5005573     -1.8582146      16000        
    449000   1.0105577      0.0069120404  -3.3746873      1.515647      -1.8590403      16000        
    450000   1.0153914      0.055027704   -3.3840318      1.5228967     -1.861135       16000        
    451000   1.0134668      0.083664835   -3.3843178      1.5200102     -1.8643076      16000        
    452000   1.0157695      0.057488752   -3.3887535      1.5234638     -1.8652897      16000        
    453000   1.0149313      0.035188313   -3.3874639      1.5222067     -1.8652573      16000        
    454000   1.0038145      0.056737501   -3.371706       1.5055335     -1.8661725      16000        
    455000   1.0100375      0.027052035   -3.3823842      1.5148669     -1.8675173      16000        
    456000   1.0197923      0.051673558   -3.399475       1.5294972     -1.8699777      16000        
    457000   1.0208295      0.050741699   -3.4025814      1.5310529     -1.8715285      16000        
    458000   1.011484       0.060015894   -3.3892683      1.5170363     -1.872232       16000        
    459000   1.0202297      0.016873122   -3.4027758      1.5301532     -1.8726226      16000        
    460000   1.0044533      0.040260928   -3.3795982      1.5064915     -1.8731067      16000        
    461000   0.99124525     0.080102981   -3.3598536      1.486682      -1.8731716      16000        
    462000   0.99513945     0.023920095   -3.366001       1.4925226     -1.8734784      16000        
    463000   1.0013849      0.034328109   -3.3765603      1.5018895     -1.8746708      16000        
    464000   0.99869481     0.047129928   -3.37411        1.497855      -1.876255       16000        
    465000   0.99885234     0.064635903   -3.3748415      1.4980912     -1.8767503      16000        
    466000   0.99241521    -0.0067148919  -3.3655824      1.4884367     -1.8771457      16000        
    467000   0.99145784    -0.01879677    -3.3646546      1.4870009     -1.8776537      16000        
    468000   0.9994994      0.0055296651  -3.3793816      1.4990617     -1.8803199      16000        
    469000   0.99501447     0.018467125   -3.3736082      1.4923351     -1.8812731      16000        
    470000   1.0024935      0.010501172   -3.3859931      1.5035522     -1.8824409      16000        
    471000   1.0033645      0.017438597   -3.3889336      1.5048586     -1.884075       16000        
    472000   1.0043161      0.035872867   -3.3918315      1.5062858     -1.8855457      16000        
    473000   1.0005661      0.017633096   -3.3866305      1.5006616     -1.885969       16000        
    474000   1.004348       0.0095947168  -3.3939646      1.5063336     -1.8876309      16000        
    475000   1.0002115      0.069714537   -3.3897084      1.5001298     -1.8895787      16000        
    476000   0.99279096    -0.0066380791  -3.3773023      1.4890003     -1.888302       16000        
    477000   1.0096922      0.033428253   -3.4056119      1.5143489     -1.8912629      16000        
    478000   0.99450259     0.042204473   -3.3833333      1.4915674     -1.8917659      16000        
    479000   0.99952838     0.046658677   -3.3921426      1.4991052     -1.8930374      16000        
    480000   0.99143406     0.018465892   -3.380072       1.4869652     -1.8931068      16000        
    481000   0.9945465      0.035306611   -3.3862608      1.4916333     -1.8946275      16000        
    482000   1.005662       0.0331434     -3.4051607      1.5083044     -1.8968563      16000        
    483000   1.0037231      0.026234347   -3.4026133      1.5053964     -1.8972169      16000        
    484000   0.99276332     0.016458606   -3.3863509      1.4889588     -1.897392       16000        
    485000   1.0022933      0.08947585    -3.4036678      1.503252      -1.9004157      16000        
    486000   0.98973076     0.00067528957 -3.3839881      1.4844106     -1.8995775      16000        
    487000   1.002648       0.0083433419  -3.4063336      1.5037841     -1.9025496      16000        
    488000   0.99588072     0.043659728   -3.395914       1.4936343     -1.9022796      16000        
    489000   0.9937546      0.050979483   -3.3942621      1.4904456     -1.9038165      16000        
    490000   0.99954414     0.045622921   -3.4050916      1.4991288     -1.9059628      16000        
    491000   0.999191       0.072514691   -3.4070175      1.4985992     -1.9084183      16000        
    492000   1.0031799      0.072159674   -3.4129571      1.5045817     -1.9083754      16000        
    493000   1.0083537      0.03234223    -3.42128        1.5123415     -1.9089385      16000        
    494000   0.99549148     0.051191813   -3.4033129      1.4930506     -1.9102624      16000        
    495000   1.007607       0.062657189   -3.4229825      1.5112216     -1.9117609      16000        
    496000   0.99512207     0.020477889   -3.4033822      1.4924965     -1.9108857      16000        
    497000   0.99118848    -0.0022171752  -3.3978127      1.4865969     -1.9112158      16000        
    498000   0.99340743    -0.017722914   -3.4031401      1.4899249     -1.9132153      16000        
    499000   0.99401109     0.025034937   -3.4045127      1.4908303     -1.9136824      16000        
    500000   1.0017303      0.02805226    -3.4180621      1.5024076     -1.9156545      16000        
    501000   0.9999547      0.015370559   -3.4173289      1.4997446     -1.9175844      16000        
    502000   1.0089584      0.041922035   -3.4328523      1.5132485     -1.9196038      16000        
    503000   0.99812767     0.056413643   -3.4174686      1.4970044     -1.9204642      16000        
    504000   1.0100445      0.012386169   -3.4372024      1.5148774     -1.922325       16000        
    505000   0.99975927     0.058000851   -3.4222195      1.4994515     -1.922768       16000        
    506000   1.0020712      0.054597491   -3.4275897      1.502919      -1.9246707      16000        
    507000   1.0024383      0.063096315   -3.4281489      1.5034695     -1.9246795      16000        
    508000   1.0058304      0.073225461   -3.4365692      1.508557      -1.9280121      16000        
    509000   1.0008449      0.04833839    -3.4285075      1.5010796     -1.9274279      16000        
    510000   0.99169693     0.0064254247  -3.4131922      1.4873595     -1.9258328      16000        
    511000   0.99248233     0.014041636   -3.4162592      1.4885374     -1.9277218      16000        
    512000   0.99980737     0.014085935   -3.430039       1.4995236     -1.9305154      16000        
    513000   0.99261725     0.024998479   -3.4202793      1.4887398     -1.9315395      16000        
    514000   0.99680437     0.078148241   -3.4283773      1.4950197     -1.9333576      16000        
    515000   0.99544543     0.071266743   -3.4271851      1.4929815     -1.9342036      16000        
    516000   1.003369       0.077497777   -3.4413513      1.5048654     -1.9364859      16000        
    517000   1.0141427      0.079081766   -3.4588292      1.521024      -1.9378052      16000        
    518000   1.0104842      0.036323791   -3.453594       1.5155369     -1.9380571      16000        
    519000   0.99728822     0.054019795   -3.4333887      1.4957453     -1.9376434      16000        
    520000   0.99399488    -0.0082533019  -3.4277159      1.4908059     -1.93691        16000        
    521000   1.0015152      0.025130316   -3.442077       1.502085      -1.9399919      16000        
    522000   0.99468395     0.060891605   -3.4334937      1.4918394     -1.9416542      16000        
    523000   0.98089744     0.039818082   -3.4128673      1.4711622     -1.9417051      16000        
    524000   0.9842559      0.018223109   -3.4173752      1.4761993     -1.9411759      16000        
    525000   0.97493943     0.04527253    -3.4042478      1.4622263     -1.9420215      16000        
    526000   1.0001431     -0.0054179843  -3.4444659      1.5000271     -1.9444388      16000        
    527000   0.99032139     0.07821724    -3.4313529      1.4852964     -1.9460565      16000        
    528000   0.99912572     0.029104802   -3.4466097      1.4985012     -1.9481084      16000        
    529000   0.9857721      0.035827017   -3.4261356      1.4784733     -1.9476622      16000        
    530000   1.000872       0.04518425    -3.4509993      1.5011203     -1.949879       16000        
    531000   0.99232684     0.061327569   -3.4387892      1.4883042     -1.9504849      16000        
    532000   0.98790906     0.013159951   -3.4329169      1.4816784     -1.9512385      16000        
    533000   1.0000909      0.024885078   -3.4536519      1.4999489     -1.9537031      16000        
    534000   1.0025502      0.052688454   -3.4584518      1.5036373     -1.9548145      16000        
    535000   0.9855024      0.039598951   -3.4325759      1.4780688     -1.9545071      16000        
    536000   0.99121067    -0.017470086   -3.4420457      1.4866301     -1.9554156      16000        
    537000   0.98614279     0.015382441   -3.4348414      1.4790293     -1.9558121      16000        
    538000   0.99350502    -0.037278763   -3.4466063      1.4900713     -1.956535       16000        
    539000   0.99977127     0.066201013   -3.4594487      1.4994695     -1.9599792      16000        
    540000   0.99515682     0.067259893   -3.4531381      1.4925486     -1.9605895      16000        
    541000   0.99200364     0.012528415   -3.4494226      1.4878195     -1.9616031      16000        
    542000   1.0134627      0.045934234   -3.4851114      1.5200041     -1.9651073      16000        
    543000   1.0010138      0.054268496   -3.4667598      1.5013331     -1.9654267      16000        
    544000   0.99959422     0.027818317   -3.4643762      1.4992039     -1.9651723      16000        
    545000   0.98137803     0.05720257    -3.4376117      1.471883      -1.9657286      16000        
    546000   0.98886932     0.049430966   -3.4501278      1.4831186     -1.9670092      16000        
    547000   0.99270554     0.056630439   -3.4581809      1.4888722     -1.9693087      16000        
    548000   0.9869467      0.021705451   -3.4487175      1.480235      -1.9684825      16000        
    549000   0.99870704     0.033911858   -3.4676862      1.4978733     -1.9698129      16000        
    550000   0.98048626    -0.0053806296  -3.4393983      1.4705455     -1.9688528      16000        
    551000   0.97498724    -0.010804134   -3.4313437      1.4622981     -1.9690456      16000        
    552000   0.98560984     0.039864182   -3.4506689      1.47823       -1.9724389      16000        
    553000   0.97920904     0.046455648   -3.441337       1.46863       -1.9727071      16000        
    554000   0.98371365     0.011591121   -3.4490475      1.475386      -1.9736615      16000        
    555000   0.99024583     0.0096255012  -3.4603597      1.4851831     -1.9751766      16000        
    556000   0.98741538     0.027991674   -3.4574501      1.4809379     -1.9765122      16000        
    557000   0.98325514     0.0031801172  -3.4525611      1.4746983     -1.9778628      16000        
    558000   1.0046333      0.045995265   -3.4882182      1.5067616     -1.9814566      16000        
    559000   0.99441141     0.013552921   -3.4711805      1.4914307     -1.9797498      16000        
    560000   0.9730464      0.044423735   -3.4382839      1.4593871     -1.9788967      16000        
    561000   0.98245193     0.0085457648  -3.4538483      1.4734937     -1.9803546      16000        
    562000   0.99100152     0.030997414   -3.4698676      1.4863165     -1.9835511      16000        
    563000   0.99268247     0.044197119   -3.4741412      1.4888376     -1.9853036      16000        
    564000   0.98761792     0.049751106   -3.4662559      1.4812417     -1.9850142      16000        
    565000   0.97848024    -0.016578211   -3.4515192      1.4675369     -1.9839823      16000        
    566000   0.979363      -0.030204494   -3.4538741      1.4688609     -1.9850132      16000        
    567000   0.98124771     0.040574216   -3.4586481      1.4716876     -1.9869606      16000        
    568000   0.99595907     0.057087996   -3.4835855      1.4937519     -1.9898336      16000        
    569000   0.9827298      0.026532729   -3.4634862      1.4739104     -1.9895758      16000        
    570000   0.98115038    -0.026132234   -3.4618494      1.4715416     -1.9903078      16000        
    571000   0.99025886     0.012334725   -3.4773857      1.4852026     -1.9921831      16000        
    572000   0.9792765     -0.020970872   -3.4612274      1.4687311     -1.9924963      16000        
    573000   0.99180995     0.0073066091  -3.481532       1.487529      -1.994003       16000        
    574000   0.98773952     0.014668898   -3.4760562      1.4814241     -1.9946321      16000        
    575000   0.9913793      0.094799269   -3.4845763      1.4868831     -1.9976932      16000        
    576000   0.98140999     0.034281179   -3.4691067      1.471931      -1.9971757      16000        
    577000   0.98531342     0.034032674   -3.4763471      1.4777854     -1.9985617      16000        
    578000   0.99040848     0.0018528976  -3.4856012      1.485427      -2.0001742      16000        
    579000   0.97387741    -0.0086267052  -3.4598494      1.4606335     -1.9992159      16000        
    580000   0.97082601     0.002680249   -3.4558608      1.456057      -1.9998038      16000        
    581000   0.97926377     0.04125039    -3.4707964      1.468712      -2.0020843      16000        
    582000   0.97973209     0.068730195   -3.4734606      1.4694144     -2.0040462      16000        
    583000   0.99356713     0.03432389    -3.4957214      1.4901644     -2.005557       16000        
    584000   0.98710317     0.046088291   -3.486522       1.4804697     -2.0060524      16000        
    585000   0.97848444     0.027272598   -3.4732061      1.4675432     -2.0056629      16000        
    586000   0.98969093     0.014610565   -3.4928626      1.4843508     -2.0085118      16000        
    587000   0.99125357     0.034017057   -3.4963774      1.4866945     -2.0096829      16000        
    588000   0.9901991     -0.001310961   -3.4952802      1.485113      -2.0101672      16000        
    589000   0.99906188     0.035779893   -3.511805       1.4984055     -2.0133995      16000        
    590000   0.99227946    -0.0068134569  -3.5009054      1.4882331     -2.0126723      16000        
    591000   0.97376971     0.039964246   -3.4724834      1.460472      -2.0120115      16000        
    592000   0.99841916     0.016827717   -3.5131269      1.4974415     -2.0156854      16000        
    593000   1.0006175      0.025150573   -3.5179608      1.5007387     -2.0172221      16000        
    594000   0.98752537     0.06066634    -3.4984386      1.4811029     -2.0173357      16000        
    595000   0.98914537     0.0091073611  -3.5006862      1.4835326     -2.0171536      16000        
    596000   0.98101906     0.00950505    -3.4895275      1.4713446     -2.0181829      16000        
    597000   0.97589155     0.033679593   -3.4825788      1.4636543     -2.0189245      16000        
    598000   0.98679702     0.021409563   -3.4998876      1.4800105     -2.0198771      16000        
    599000   0.98463304     0.0064647328  -3.4980426      1.4767649     -2.0212777      16000        
    600000   0.98815928     0.039452937   -3.5046736      1.4820536     -2.02262        16000        
    601000   0.98380477    -0.049407642   -3.4973768      1.4755227     -2.0218541      16000        
    602000   0.97328922     0.028695401   -3.4826251      1.4597513     -2.0228738      16000        
    603000   0.96462787    -0.026641856   -3.4687182      1.4467609     -2.0219572      16000        
    604000   0.97342712     0.050172646   -3.4846426      1.4599582     -2.0246844      16000        
    605000   0.97957066     0.028803905   -3.4952853      1.4691723     -2.026113       16000        
    606000   0.96516813    -0.027016058   -3.4735317      1.4475712     -2.0259605      16000        
    607000   0.9751442      0.046306719   -3.4919225      1.4625335     -2.0293891      16000        
    608000   0.97638143     0.047065292   -3.4946813      1.4643891     -2.0302922      16000        
    609000   0.97957317     0.018217415   -3.500164       1.4691761     -2.0309879      16000        
    610000   0.97504129    -0.022343947   -3.4928141      1.4623791     -2.030435       16000        
    611000   0.9719219      0.025404249   -3.4900786      1.4577006     -2.032378       16000        
    612000   0.98758695     0.027037173   -3.5167697      1.4811952     -2.0355745      16000        
    613000   0.97974845    -0.034205701   -3.5041057      1.469439      -2.0346667      16000        
    614000   0.9785936      0.064160532   -3.5040746      1.4677069     -2.0363677      16000        
    615000   0.98118427     0.0539664     -3.5099319      1.4715924     -2.0383395      16000        
    616000   0.98284395     0.01626848    -3.5127304      1.4740816     -2.0386488      16000        
    617000   0.99329735     0.073725387   -3.5315329      1.4897598     -2.0417731      16000        
    618000   0.99106399     0.046521191   -3.5291696      1.4864102     -2.0427594      16000        
    619000   0.98629302     0.089673163   -3.5229432      1.4792546     -2.0436886      16000        
    620000   0.98816128     0.051272921   -3.5256996      1.4820566     -2.043643       16000        
    621000   0.97993873     0.0033784004  -3.5124147      1.4697244     -2.0426903      16000        
    622000   0.97425628    -0.038698395   -3.503396       1.4612017     -2.0421943      16000        
    623000   0.99131005     0.046303503   -3.5344736      1.4867792     -2.0476944      16000        
    624000   0.98354118     0.016384828   -3.5226945      1.4751274     -2.0475671      16000        
    625000   0.9860429      0.020135895   -3.5275509      1.4788795     -2.0486714      16000        
    626000   0.97700519     0.03932854    -3.5149154      1.4653246     -2.0495908      16000        
    627000   0.98398248     0.044086976   -3.5265808      1.4757892     -2.0507915      16000        
    628000   0.97626766    -0.010767742   -3.5140663      1.4642184     -2.0498479      16000        
    629000   0.97402225     0.010945843   -3.5114042      1.4608507     -2.0505535      16000        
    630000   0.97365772    -0.017297762   -3.5122334      1.460304      -2.0519294      16000        
    631000   0.97240541     0.032110609   -3.5120147      1.4584258     -2.0535889      16000        
    632000   0.97423945     0.023721783   -3.5162035      1.4611765     -2.055027       16000        
    633000   0.98560516     0.026544864   -3.5347692      1.4782229     -2.0565463      16000        
    634000   0.98064228    -0.052842709   -3.5265147      1.4707796     -2.0557351      16000        
    635000   0.9832809      0.013186484   -3.5320091      1.474737      -2.0572721      16000        
    636000   0.97470266     0.015427174   -3.5205895      1.4618712     -2.0587182      16000        
    637000   0.97252102    -0.03357795    -3.5172227      1.4585992     -2.0586235      16000        
    638000   0.96996185     0.061205831   -3.5147457      1.4547609     -2.0599848      16000        
    639000   0.96208934     0.056719768   -3.5034451      1.4429536     -2.0604914      16000        
    640000   0.97268094     0.010622599   -3.5211401      1.458839      -2.062301       16000        
    641000   0.98605676     0.024297769   -3.5432177      1.4789003     -2.0643175      16000        
    642000   0.97699178     0.04520078    -3.5300801      1.4653045     -2.0647757      16000        
    643000   0.98516528    -0.055330994   -3.5429691      1.4775632     -2.0654059      16000        
    644000   0.98145706    -0.010100733   -3.539324       1.4720016     -2.0673225      16000        
    645000   0.97458561     0.057060517   -3.5308665      1.4616957     -2.0691709      16000        
    646000   0.97428853     0.014358703   -3.5298809      1.4612501     -2.0686308      16000        
    647000   0.9720464      0.055912214   -3.5270727      1.4578873     -2.0691853      16000        
    648000   0.97375199     0.04208749    -3.5309505      1.4604454     -2.0705051      16000        
    649000   0.98114653     0.038659969   -3.5443732      1.4715358     -2.0728373      16000        
    650000   0.97834809     0.038332428   -3.5412663      1.4673387     -2.0739276      16000        
    651000   0.98604162     0.010080495   -3.5536411      1.4788776     -2.0747636      16000        
    652000   1.0043946      0.058261311   -3.5851202      1.5064035     -2.0787167      16000        
    653000   0.98963201     0.058753945   -3.5628615      1.4842625     -2.0785991      16000        
    654000   0.97750416     0.0015058926  -3.5431028      1.466073      -2.0770299      16000        
    655000   0.98163002     0.029625561   -3.5507807      1.472261      -2.0785197      16000        
    656000   0.97559849     0.030821517   -3.5425191      1.4632148     -2.0793043      16000        
    657000   0.96964797     0.027632301   -3.5345348      1.4542901     -2.0802446      16000        
    658000   0.97140313    -0.039593172   -3.5371828      1.4569226     -2.0802603      16000        
    659000   0.97905573     0.025536616   -3.551252       1.4684        -2.082852       16000        
    660000   0.97339349     0.0077616718  -3.5437029      1.4599077     -2.0837952      16000        
    661000   0.97444716     0.012782711   -3.5460746      1.461488      -2.0845866      16000        
    662000   0.97598648     0.045307808   -3.5498089      1.4637967     -2.0860121      16000        
    663000   0.97846412     0.018175884   -3.5540391      1.4675127     -2.0865263      16000        
    664000   0.98252076     0.031672969   -3.5612236      1.4735969     -2.0876266      16000        
    665000   0.98968734     0.025831495   -3.574397       1.4843454     -2.0900516      16000        
    666000   0.98174309     0.028653586   -3.5615508      1.4724306     -2.0891202      16000        
    667000   0.95983091     0.033421517   -3.5279845      1.4395664     -2.0884182      16000        
    668000   0.97674752     0.023449452   -3.5557831      1.4649381     -2.0908449      16000        
    669000   0.97374758     0.013161994   -3.5518956      1.4604388     -2.0914568      16000        
    670000   0.96374237     0.01505351    -3.5376992      1.4454329     -2.0922664      16000        
    671000   0.96632655     0.024990966   -3.5419259      1.4493086     -2.0926173      16000        
    672000   0.97088002    -0.0098475407  -3.5500044      1.456138      -2.0938664      16000        
    673000   0.9887042      0.024718824   -3.5793401      1.4828709     -2.0964692      16000        
    674000   0.96661072     0.020890739   -3.545763       1.4497348     -2.0960281      16000        
    675000   0.97357641     0.10857497    -3.5590381      1.4601821     -2.0988561      16000        
    676000   0.98539154     0.071473831   -3.5798965      1.4779026     -2.1019939      16000        
    677000   0.96908668     0.017604166   -3.5528944      1.4534483     -2.0994461      16000        
    678000   0.96648161     0.0037865898  -3.5502404      1.4495412     -2.1006992      16000        
    679000   0.97929051    -0.0050243528  -3.5704403      1.4687521     -2.1016882      16000        
    680000   0.97268881    -0.035675661   -3.5617796      1.4588508     -2.1029288      16000        
    681000   0.97032554     0.025347395   -3.5583349      1.4553064     -2.1030285      16000        
    682000   0.97359402     0.047203461   -3.5655195      1.4602085     -2.105311       16000        
    683000   0.96247881     0.017504515   -3.5475821      1.4435378     -2.1040444      16000        
    684000   0.97158611     0.010117753   -3.5639019      1.457197      -2.1067049      16000        
    685000   0.98442179     0.022311835   -3.5858454      1.4764481     -2.1093973      16000        
    686000   0.97563405     0.027126625   -3.5730104      1.4632681     -2.1097423      16000        
    687000   0.9748757      0.025572023   -3.5732181      1.4621308     -2.1110873      16000        
    688000   0.9721813      0.042878246   -3.5699707      1.4580897     -2.111881       16000        
    689000   0.97451037     0.012623824   -3.572753       1.4615828     -2.1111701      16000        
    690000   0.97615559    -0.013112359   -3.5765869      1.4640504     -2.1125365      16000        
    691000   0.96372752     0.027017302   -3.5583453      1.4454106     -2.1129347      16000        
    692000   0.98344896     0.024542533   -3.5910854      1.474989      -2.1160963      16000        
    693000   0.97443086    -0.01820197    -3.5767831      1.4614636     -2.1153195      16000        
    694000   0.96857271     0.040376108   -3.5678944      1.4526775     -2.1152169      16000        
    695000   0.98241131     0.00067663835 -3.5918148      1.4734328     -2.1183821      16000        
    696000   0.97996925     0.041907577   -3.5904933      1.4697701     -2.1207231      16000        
    697000   0.97078987     0.01655781    -3.5755546      1.4560028     -2.1195518      16000        
    698000   0.98038229     0.010754005   -3.5922882      1.4703896     -2.1218986      16000        
    699000   0.97951375    -0.0073993741  -3.5915448      1.469087      -2.1224578      16000        
    700000   0.96356802    -0.024354411   -3.5645078      1.4451714     -2.1193365      16000        
    701000   0.96243119     0.027795965   -3.5653199      1.4434663     -2.1218535      16000        
    702000   0.96546204     0.03928366    -3.5717557      1.448012      -2.1237436      16000        
    703000   0.96479263    -0.0037399981  -3.5717439      1.447008      -2.1247358      16000        
    704000   0.96472236     0.03861586    -3.5725169      1.4469027     -2.1256143      16000        
    705000   0.97388135     0.014549849   -3.5874832      1.4606394     -2.1268438      16000        
    706000   0.97487216     0.047592487   -3.5914791      1.4621254     -2.1293537      16000        
    707000   0.96304843     0.046258164   -3.5731809      1.4443921     -2.1287888      16000        
    708000   0.96474672    -0.014209449   -3.5759635      1.4469392     -2.1290243      16000        
    709000   0.96763696    -0.038169311   -3.5815926      1.451274      -2.1303186      16000        
    710000   0.97123205     0.023929639   -3.5881458      1.456666      -2.1314799      16000        
    711000   0.96517873     0.021697784   -3.5795076      1.4475871     -2.1319205      16000        
    712000   0.96543658     0.053882127   -3.5825505      1.4479739     -2.1345766      16000        
    713000   0.97387073     0.036592522   -3.5963479      1.4606235     -2.1357244      16000        
    714000   0.97836214     0.025773907   -3.6035337      1.4673598     -2.1361739      16000        
    715000   0.97777617     0.035786057   -3.6046572      1.4664809     -2.1381763      16000        
    716000   0.96007873     0.053746653   -3.5767097      1.4399381     -2.1367716      16000        
    717000   0.95708588     0.025114594   -3.5729233      1.4354494     -2.137474       16000        
    718000   0.95735865     0.011970451   -3.5739659      1.4358585     -2.1381074      16000        
    719000   0.960116       0.06173193    -3.5799237      1.439994      -2.1399298      16000        
    720000   0.96442118     0.03312605    -3.5875846      1.4464509     -2.1411337      16000        
    721000   0.96570577     0.00019170903 -3.5906791      1.4483776     -2.1423015      16000        
    722000   0.95374098    -0.029967516   -3.5721445      1.4304326     -2.1417118      16000        
    723000   0.96717947     0.016557518   -3.5947041      1.4505879     -2.1441163      16000        
    724000   0.95396342    -0.0025713169  -3.5748535      1.4307663     -2.1440873      16000        
    725000   0.97306934     0.027169781   -3.6061026      1.4594216     -2.146681       16000        
    726000   0.96841907     0.026524464   -3.6008574      1.452447      -2.1484103      16000        
    727000   0.97339583    -0.0031176158  -3.6083196      1.4599112     -2.1484083      16000        
    728000   0.96705117     0.039524159   -3.5999309      1.4503954     -2.1495355      16000        
    729000   0.96707822     0.027404507   -3.600409       1.450436      -2.149973       16000        
    730000   0.95913892    -0.024739927   -3.5882273      1.4385285     -2.1496987      16000        
    731000   0.9597673      0.036773117   -3.5905908      1.439471      -2.1511198      16000        
    732000   0.96720699     0.0041101089  -3.6032247      1.4506291     -2.1525956      16000        
    733000   0.98514916     0.064492125   -3.6341061      1.477539      -2.1565671      16000        
    734000   0.97172725    -0.009529742   -3.6129777      1.4574087     -2.155569       16000        
    735000   0.96889552     0.0049986867  -3.6090267      1.4531616     -2.1558651      16000        
    736000   0.9697001     -0.012813648   -3.6107091      1.4543683     -2.1563407      16000        
    737000   0.96147638    -0.027253758   -3.5983391      1.4420343     -2.1563048      16000        
    738000   0.9709301      0.0017448055  -3.6148433      1.4562131     -2.1586302      16000        
    739000   0.96421132     0.014246452   -3.6055786      1.4461362     -2.1594424      16000        
    740000   0.97724262     0.0017801121  -3.6265777      1.4656807     -2.1608971      16000        
    741000   0.96825721     0.03461537    -3.6140686      1.4522043     -2.1618644      16000        
    742000   0.95660428     0.014232413   -3.5959383      1.4347271     -2.1612112      16000        
    743000   0.96891924     0.0090384113  -3.6163804      1.4531972     -2.1631832      16000        
    744000   0.94726503     0.0053727334  -3.5830661      1.4207199     -2.1623461      16000        
    745000   0.96901653    -0.02066197    -3.6189031      1.4533431     -2.16556        16000        
    746000   0.95672181     0.048720907   -3.6017297      1.4349033     -2.1668264      16000        
    747000   0.96556636    -0.02645185    -3.6149936      1.4481685     -2.1668251      16000        
    748000   0.97010267     0.048025493   -3.6242632      1.4549721     -2.1692911      16000        
    749000   0.96610132     0.032647619   -3.6187289      1.4489708     -2.1697581      16000        
    750000   0.96529709     0.024140919   -3.6174311      1.4477646     -2.1696665      16000        
    751000   0.96452487     0.0086073683  -3.6168874      1.4466065     -2.1702809      16000        
    752000   0.95920596    -0.04389849    -3.609506       1.4386291     -2.1708769      16000        
    753000   0.96454036     0.01064439    -3.6184872      1.4466297     -2.1718575      16000        
    754000   0.95652032    -0.0026014598  -3.6066489      1.4346011     -2.1720478      16000        
    755000   0.96036887    -0.0030329846  -3.6134947      1.4403732     -2.1731215      16000        
    756000   0.96556934     0.033985613   -3.6236777      1.448173      -2.1755048      16000        
    757000   0.96357063     0.046696323   -3.621339       1.4451753     -2.1761637      16000        
    758000   0.95420747     0.028131373   -3.6068458      1.4311323     -2.1757135      16000        
    759000   0.96117988    -0.017460358   -3.6186465      1.4415896     -2.1770569      16000        
    760000   0.96727904     0.059051338   -3.6309122      1.4507372     -2.180175       16000        
    761000   0.94928179    -0.014848443   -3.6015269      1.4237447     -2.1777822      16000        
    762000   0.95314918     0.05521824    -3.6099334      1.429545      -2.1803884      16000        
    763000   0.96849671     0.0013959909  -3.6357017      1.4525635     -2.1831382      16000        
    764000   0.9599159      0.036354754   -3.6226512      1.4396939     -2.1829574      16000        
    765000   0.97079801    -0.03168271    -3.6398938      1.456015      -2.1838788      16000        
[...]
    816000   0.94433821     0.018620246   -3.6450197      1.4163303     -2.2286895      16000        
    817000   0.97258612     0.01112412    -3.6914748      1.4586968     -2.232778       16000        
    818000   0.94795112    -0.002073995   -3.6522112      1.4217489     -2.2304622      16000        
    819000   0.95976501     0.023277019   -3.6729697      1.4394676     -2.2335021      16000        
    820000   0.94774153     0.044880252   -3.6546834      1.4214346     -2.2332488      16000        
    821000   0.95743128     0.065156986   -3.671157       1.4359674     -2.2351896      16000        
    822000   0.9518469     -0.0014180629  -3.6636209      1.4275919     -2.2360291      16000        
    823000   0.9450404     -0.017348664   -3.6523253      1.4173834     -2.2349419      16000        
    824000   0.95286945    -0.044710953   -3.6644258      1.4291255     -2.2353003      16000        
    825000   0.9577687      0.037164089   -3.6755376      1.4364735     -2.2390641      16000        
    826000   0.95234423     0.058470437   -3.6676298      1.4283378     -2.239292       16000        
    827000   0.95102425    -0.0078288413  -3.6655683      1.4263581     -2.2392103      16000        
    828000   0.95321152     0.009038706   -3.6694844      1.4296385     -2.2398458      16000        
    829000   0.95719927    -0.02033449    -3.6774353      1.4356194     -2.2418159      16000        
    830000   0.94388224     0.033791155   -3.657599       1.4156464     -2.2419526      16000        
    831000   0.95189377     0.026151486   -3.6705844      1.4276622     -2.2429222      16000        
    832000   0.95750808    -0.010660241   -3.6806817      1.4360826     -2.2445992      16000        
    833000   0.93524009     0.043252415   -3.6455524      1.4026848     -2.2428676      16000        
    834000   0.9369613      0.043897731   -3.6495314      1.4052663     -2.2442651      16000        
    835000   0.94857648     0.062147276   -3.6691196      1.4226869     -2.2464328      16000        
    836000   0.95624806    -0.0076967985  -3.6819802      1.4341928     -2.2477874      16000        
    837000   0.95615959     0.0025230508  -3.6821253      1.4340601     -2.2480652      16000        
    838000   0.94229309     0.0059019691  -3.6609948      1.4132629     -2.2477318      16000        
    839000   0.94268514     0.0040685333  -3.6627127      1.413851      -2.2488617      16000        
    840000   0.95193687    -0.017583143   -3.6776663      1.4277268     -2.2499394      16000        
    841000   0.94338218     0.018595962   -3.6666045      1.4148964     -2.2517081      16000        
    842000   0.9467084      0.046558543   -3.6715145      1.4198851     -2.2516294      16000        
    843000   0.96008667     0.014648028   -3.6936443      1.43995       -2.2536943      16000        
    844000   0.95840355     0.049260682   -3.6927169      1.4374256     -2.2552913      16000        
    845000   0.94632389    -0.00324824    -3.6742102      1.4193084     -2.2549018      16000        
    846000   0.96134505     0.022250785   -3.6996097      1.4418373     -2.2577724      16000        
    847000   0.9451687     -0.030780303   -3.6726545      1.4175758     -2.2550786      16000        
    848000   0.94822868    -0.0029165858  -3.6789957      1.4221652     -2.2568304      16000        
    849000   0.94098382    -0.017855083   -3.6671402      1.4112993     -2.2558409      16000        
    850000   0.943944      -0.001699967   -3.6737148      1.415739      -2.2579758      16000        
    851000   0.94269674     0.05100569    -3.6743222      1.4138684     -2.2604539      16000        
    852000   0.9568854     -0.031682232   -3.6971029      1.4351487     -2.2619542      16000        
    853000   0.94347107     0.063025876   -3.6777309      1.4150297     -2.2627012      16000        
    854000   0.94174384     0.006481099   -3.6743371      1.4124392     -2.2618979      16000        
    855000   0.9573542      0.0038411366  -3.7004554      1.4358518     -2.2646036      16000        
    856000   0.94888236    -0.024823014   -3.6873591      1.4231456     -2.2642134      16000        
    857000   0.94708457     0.034592632   -3.6867198      1.4204493     -2.2662706      16000        
    858000   0.95500526     0.016502393   -3.699679       1.4323288     -2.2673501      16000        
    859000   0.93987951     0.014639149   -3.6750361      1.409643      -2.2653931      16000        
    860000   0.95019661     0.016876032   -3.6936046      1.4251168     -2.2684878      16000        
    861000   0.95430777     0.0085266196  -3.7011966      1.4312827     -2.2699139      16000        
    862000   0.94147004    -0.03809037    -3.6798637      1.4120285     -2.2678352      16000        
    863000   0.94664119    -0.007508854   -3.689681       1.4197843     -2.2698967      16000        
    864000   0.9386972     -8.5303904e-05 -3.6773549      1.4078698     -2.2694851      16000        
    865000   0.95203998     0.023950086   -3.7003886      1.4278815     -2.2725071      16000        
    866000   0.94038031    -0.03271914    -3.6820527      1.4103941     -2.2716585      16000        
    867000   0.94886025    -0.049788391   -3.696433       1.4231125     -2.2733205      16000        
    868000   0.94086298     0.041421147   -3.6860519      1.4111181     -2.2749338      16000        
    869000   0.93819297     0.027826744   -3.6822797      1.4071135     -2.2751661      16000        
    870000   0.94776608    -0.0095341958  -3.6973937      1.4214714     -2.2759222      16000        
    871000   0.92730426     0.0088633934  -3.6658928      1.3907825     -2.2751103      16000        
    872000   0.94688482     0.01865532    -3.6985308      1.4201497     -2.2783811      16000        
    873000   0.92740036     0.047726333   -3.668798       1.3909266     -2.2778714      16000        
    874000   0.94573741     0.024785688   -3.6990941      1.4184288     -2.2806653      16000        
    875000   0.94972472     0.03758567    -3.7060361      1.424409      -2.2816271      16000        
    876000   0.95401561    -0.013006895   -3.713133       1.4308445     -2.2822885      16000        
    877000   0.94882918     0.028690456   -3.706032       1.4230659     -2.2829661      16000        
    878000   0.95162817     0.016889751   -3.7116576      1.4272638     -2.2843938      16000        
    879000   0.95379477    -0.026646128   -3.7151287      1.4305133     -2.2846154      16000        
    880000   0.9494922     -0.0038619738  -3.7081717      1.4240603     -2.2841114      16000        
    881000   0.95715504    -0.0055786835  -3.7227113      1.4355531     -2.2871582      16000        
    882000   0.9432215      0.036301823   -3.7021137      1.4146554     -2.2874583      16000        
    883000   0.93423956     0.037288842   -3.6882397      1.4011842     -2.2870555      16000        
    884000   0.95524855    -0.017486476   -3.7225735      1.4326937     -2.2898798      16000        
    885000   0.95796251     0.017307535   -3.7282703      1.4367641     -2.2915062      16000        
    886000   0.95172994     0.0070165631  -3.7178914      1.4274165     -2.2904749      16000        
    887000   0.94695849     0.0071559953  -3.7113825      1.4202602     -2.2911223      16000        
    888000   0.94879897     0.062386731   -3.7164176      1.4230206     -2.2933971      16000        
    889000   0.95244796     0.011736174   -3.7225022      1.4284934     -2.2940088      16000        
    890000   0.93302707    -0.0055466875  -3.691099       1.3993657     -2.2917333      16000        
    891000   0.95774213    -0.0099321908  -3.7327825      1.4364336     -2.2963489      16000        
    892000   0.94389718     0.022522802   -3.7108456      1.4156688     -2.2951768      16000        
    893000   0.95237814     0.0043119549  -3.7258909      1.4283886     -2.2975022      16000        
    894000   0.94790091     0.039059179   -3.7198461      1.4216736     -2.2981725      16000        
    895000   0.93910384     0.033431723   -3.7059313      1.4084797     -2.2974516      16000        
    896000   0.93746096     0.035150272   -3.7049184      1.4060157     -2.2989028      16000        
    897000   0.94349979    -0.00083972817 -3.7157067      1.4150728     -2.300634       16000        
    898000   0.93948904     0.013211619   -3.7103373      1.4090574     -2.3012799      16000        
    899000   0.95495764     0.03538275    -3.736191       1.4322574     -2.3039336      16000        
    900000   0.9593396      0.019970856   -3.7433244      1.4388295     -2.3044949      16000        
    901000   0.9367829     -0.015878939   -3.7069898      1.4049987     -2.3019911      16000        
    902000   0.95339046    -0.043811305   -3.73462        1.4299069     -2.304713       16000        
    903000   0.94270577    -0.00541876    -3.7192289      1.4138819     -2.305347       16000        
    904000   0.95563962    -0.013503974   -3.740181       1.4332802     -2.3069007      16000        
    905000   0.94599899     0.012741981   -3.7267307      1.4188211     -2.3079096      16000        
    906000   0.93448331     0.020622188   -3.7085104      1.4015498     -2.3069607      16000        
    907000   0.94883751    -0.039064924   -3.7315157      1.4230784     -2.3084373      16000        
    908000   0.94538081     0.033199345   -3.7294218      1.417894      -2.3115279      16000        
    909000   0.94527358    -0.0086525133  -3.7289841      1.4177331     -2.311251       16000        
    910000   0.9545094      0.0011937229  -3.7434098      1.4315851     -2.3118247      16000        
    911000   0.94522455    -0.0028008315  -3.7297673      1.4176596     -2.3121077      16000        
    912000   0.94467083     0.0028473031  -3.7295876      1.4168291     -2.3127585      16000        
    913000   0.95322516     0.02619952    -3.7448597      1.429659      -2.3152006      16000        
    914000   0.93446725     0.00082623208 -3.715362       1.4015257     -2.3138363      16000        
    915000   0.94650054     0.11060537    -3.7369899      1.4195733     -2.3174166      16000        
    916000   0.95340463     0.062725487   -3.7479564      1.4299282     -2.3180282      16000        
    917000   0.93833197     0.032568606   -3.7239995      1.407322      -2.3166775      16000        
    918000   0.94465842     0.035498754   -3.736469       1.4168105     -2.3196585      16000        
    919000   0.95470851     0.051095753   -3.7522802      1.4318838     -2.3203964      16000        
    920000   0.92663232    -0.012316255   -3.7071364      1.3897747     -2.3173617      16000        
    921000   0.93394225     0.0018950671  -3.7198607      1.4007383     -2.3191225      16000        
    922000   0.95180544    -0.011211734   -3.7493846      1.4275297     -2.321855       16000        
    923000   0.94830305     0.057588583   -3.7461562      1.4222768     -2.3238794      16000        
    924000   0.94083245    -0.0016723804  -3.7338633      1.4110723     -2.3227911      16000        
    925000   0.95277461     0.053980066   -3.7553453      1.4289833     -2.326362       16000        
    926000   0.9330462      0.029764407   -3.7244978      1.3993943     -2.3251035      16000        
    927000   0.93627746     0.018349228   -3.7281477      1.4042406     -2.3239071      16000        
    928000   0.94701207     0.018125343   -3.7479725      1.4203405     -2.327632       16000        
    929000   0.94629011     0.0074865603  -3.7472352      1.4192577     -2.3279775      16000        
    930000   0.94578935    -0.0039560541  -3.7469501      1.4185067     -2.3284434      16000        
    931000   0.95057832    -0.0022424333  -3.7562485      1.4256893     -2.3305593      16000        
    932000   0.93464197    -0.026618531   -3.7303934      1.4017877     -2.3286057      16000        
    933000   0.94919082     0.054207086   -3.7566962      1.4236083     -2.333088       16000        
    934000   0.93805014     0.04136587    -3.7395867      1.4068993     -2.3326874      16000        
    935000   0.94147633    -0.02911226    -3.7440097      1.412038      -2.3319717      16000        
    936000   0.92729648     0.025090973   -3.7234272      1.3907709     -2.3326563      16000        
    937000   0.94845451     0.024549789   -3.7585209      1.4225039     -2.336017       16000        
    938000   0.9321636      0.046774897   -3.7326888      1.3980706     -2.3346181      16000        
    939000   0.95079329     0.0018924359  -3.7625275      1.4260117     -2.3365158      16000        
    940000   0.93435769    -0.044447858   -3.7365578      1.4013613     -2.3351964      16000        
    941000   0.9434023     -0.022163772   -3.7529649      1.4149266     -2.3380383      16000        
    942000   0.94091968    -0.029248133   -3.7488787      1.4112031     -2.3376756      16000        
    943000   0.92866002     0.0078220392  -3.7304299      1.3928159     -2.337614       16000        
    944000   0.94110551    -0.023324985   -3.7514378      1.4114818     -2.339956       16000        
    945000   0.93572585     0.01135445    -3.7432362      1.4034133     -2.3398229      16000        
    946000   0.93596464     0.028856044   -3.7450917      1.4037715     -2.3413202      16000        
    947000   0.9400367      0.032142567   -3.7531531      1.4098788     -2.3432743      16000        
    948000   0.94030299     0.028839452   -3.754044       1.4102782     -2.3437658      16000        
    949000   0.9293273      0.045920067   -3.7383712      1.3938167     -2.3445545      16000        
    950000   0.93765068    -0.0046963354  -3.751022       1.4063002     -2.3447218      16000        
    951000   0.94579361    -0.020667193   -3.7643247      1.4185131     -2.3458117      16000        
    952000   0.94666874    -0.011790267   -3.7676469      1.4198256     -2.3478213      16000        
    953000   0.93679543     0.031051164   -3.7531938      1.4050175     -2.3481763      16000        
    954000   0.94070278     0.016990928   -3.7602548      1.4108778     -2.349377       16000        
    955000   0.9312986      0.010134505   -3.7451447      1.3967733     -2.3483715      16000        
    956000   0.9330653      0.0075769191  -3.749452       1.399423      -2.350029       16000        
    957000   0.94533061     0.021976397   -3.7701746      1.4178187     -2.3523559      16000        
    958000   0.94215546     0.021974528   -3.7648024      1.4130565     -2.3517458      16000        
    959000   0.94987966    -0.0043268196  -3.7779733      1.4246414     -2.353332       16000        
    960000   0.94474966     0.0010074708  -3.7702126      1.4169474     -2.3532652      16000        
    961000   0.92836221     0.024443883   -3.7454315      1.3923692     -2.3530623      16000        
    962000   0.94814259     0.061583518   -3.7792131      1.4220361     -2.357177       16000        
    963000   0.92589797    -0.015159428   -3.7430244      1.3886733     -2.354351       16000        
    964000   0.92922219     0.014866235   -3.7496042      1.3936591     -2.3559452      16000        
    965000   0.93261055    -0.0057611418  -3.7550913      1.398741      -2.3563503      16000        
    966000   0.92840791     0.0096813901  -3.7495698      1.3924378     -2.357132       16000        
    967000   0.94543533    -0.017084234   -3.7773999      1.4179757     -2.3594242      16000        
    968000   0.92714722     0.016998042   -3.7495719      1.390547      -2.3590249      16000        
    969000   0.94142264     0.031378137   -3.7740488      1.4119574     -2.3620914      16000        
    970000   0.9330961     -0.010006233   -3.7605408      1.3994692     -2.3610716      16000        
    971000   0.93760534     0.018502163   -3.7694297      1.4062322     -2.3631975      16000        
    972000   0.94625658     0.048798569   -3.7835339      1.4192074     -2.3643264      16000        
    973000   0.92051116    -0.022537794   -3.7423914      1.3805941     -2.3617972      16000        
    974000   0.93414263     0.030373855   -3.7664843      1.4010388     -2.3654455      16000        
    975000   0.93024464     0.031200428   -3.7610654      1.3951925     -2.3658729      16000        
    976000   0.93978557     0.01748471    -3.7762353      1.4095021     -2.3667332      16000        
    977000   0.93292453     0.028982733   -3.7655816      1.3992119     -2.3663698      16000        
    978000   0.94538623     0.027770324   -3.7870346      1.4179021     -2.3691325      16000        
    979000   0.9367069     -0.015616061   -3.7740613      1.4048847     -2.3691766      16000        
    980000   0.91599934    -0.029831361   -3.7403976      1.3738273     -2.3665704      16000        
    981000   0.9281149     -0.0037125659  -3.7610239      1.3919983     -2.3690255      16000        
    982000   0.9391585      0.00082422904 -3.7791696      1.4085617     -2.3706079      16000        
    983000   0.93887786    -0.010871174   -3.7799068      1.4081408     -2.371766       16000        
    984000   0.93268445     0.029479867   -3.7725084      1.3988518     -2.3736566      16000        
    985000   0.94830076     0.015783534   -3.7976132      1.4222733     -2.3753399      16000        
    986000   0.9286807     -0.021817675   -3.7667186      1.3928469     -2.3738716      16000        
    987000   0.94187768     0.025655705   -3.7886552      1.4126399     -2.3760153      16000        
    988000   0.9359787      0.011459506   -3.7801413      1.4037926     -2.3763487      16000        
    989000   0.93732533     0.017303823   -3.7831759      1.4058122     -2.3773636      16000        
    990000   0.94927579     0.011703485   -3.8030327      1.4237357     -2.379297       16000        
    991000   0.92726944    -0.0038390795  -3.7681122      1.3907303     -2.3773819      16000        
    992000   0.93101284     0.0010217975  -3.7748367      1.3963447     -2.378492       16000        
    993000   0.93465757    -0.045203551   -3.7818667      1.4018111     -2.3800556      16000        
    994000   0.94412781    -0.015763329   -3.7984896      1.4160147     -2.382475       16000        
    995000   0.93391087     0.00072955765 -3.7828057      1.4006912     -2.3821145      16000        
    996000   0.93246686     0.034227406   -3.7814287      1.3985254     -2.3829032      16000        
    997000   0.92962852     0.01869691    -3.7770094      1.3942685     -2.3827409      16000        
    998000   0.93777923     0.026018636   -3.7921881      1.406493      -2.3856951      16000        
    999000   0.93211044     0.062195683   -3.7828793      1.3979909     -2.3848884      16000        
   1000000   0.93668975     0.048423623   -3.7910206      1.404859      -2.3861616      16000        
Loop time of 2094.54 on 2 procs for 1000000 steps with 8000 atoms

Performance: 206250.917 tau/day, 477.433 timesteps/s
98.9% CPU use with 2 MPI tasks x no OpenMP threads

MPI task timing breakdown:
Section |  min time  |  avg time  |  max time  |%varavg| %total
---------------------------------------------------------------
Pair    | 1549.8     | 1586.4     | 1623.1     |  92.0 | 75.74
Neigh   | 285.24     | 291.33     | 297.42     |  35.7 | 13.91
Comm    | 108.97     | 152.59     | 196.22     | 353.2 |  7.29
Output  | 0.02784    | 0.035804   | 0.043768   |   4.2 |  0.00
Modify  | 51.556     | 52.304     | 53.052     |  10.3 |  2.50
Other   |            | 11.87      |            |       |  0.57

Nlocal:           4000 ave        4113 max        3887 min
Histogram: 1 0 0 0 0 0 0 0 0 1
Nghost:         5210.5 ave        5259 max        5162 min
Histogram: 1 0 0 0 0 0 0 0 0 1
Neighs:         103527 ave      108770 max       98284 min
Histogram: 1 0 0 0 0 0 0 0 0 1

Total # of neighbors = 207054
Ave neighs/atom = 25.88175
Neighbor list builds = 50000
Dangerous builds not checked
Total wall time: 0:34:54
